                  Welcome to Q-Chem
     A Quantum Leap Into The Future Of Chemistry


 Q-Chem 5.4 (devel), Q-Chem, Inc., Pleasanton, CA (2021)

 E. Epifanovsky,  A. T. B. Gilbert,  Xintian Feng,  Joonho Lee,  Yuezhi Mao,  
 N. Mardirossian,  P. Pokhilko,  A. White,  M. Wormit,  M. P. Coons,  
 A. L. Dempwolff,  Zhengting Gan,  D. Hait,  P. R. Horn,  L. D. Jacobson,  
 I. Kaliman,  J. Kussmann,  A. W. Lange,  Ka Un Lao,  D. S. Levine,  Jie Liu,  
 S. C. McKenzie,  A. F. Morrison,  K. Nanda,  F. Plasser,  D. R. Rehn,  
 M. L. Vidal,  Zhi-Qiang You,  Ying Zhu,  B. Alam,  B. Albrecht,  
 A. Aldossary,  E. Alguire,  J. H. Andersen,  D. Barton,  K. Begam,  A. Behn,  
 Y. A. Bernard,  E. J. Berquist,  H. Burton,  A. Carreras,  K. Carter-Fenk,  
 R. Chakraborty,  A. D. Chien,  K. D. Closser,  V. Cofer-Shabica,  
 S. Dasgupta,  Jia Deng,  M. de Wergifosse,  M. Diedenhofen,  Hainam Do,  
 S. Ehlert,  Po-Tung Fang,  S. Fatehi,  Qingguo Feng,  T. Friedhoff,  
 J. Gayvert,  Qinghui Ge,  G. Gidofalvi,  M. Goldey,  J. Gomes,  
 C. Gonzalez-Espinoza,  S. Gulania,  A. Gunina,  M. W. D. Hanson-Heine,  
 P. H. P. Harbach,  A. W. Hauser,  M. F. Herbst,  M. Hernandez Vera,  
 M. Hodecker,  Z. C. Holden,  S. Houck,  Xunkun Huang,  Kerwin Hui,  
 B. C. Huynh,  M. Ivanov,  Hyunjun Ji,  Hanjie Jiang,  B. Kaduk,  S. Kaehler,  
 K. Khistyaev,  Jaehoon Kim,  P. Klunzinger,  Z. Koczor-Benda,  
 Joong Hoon Koh,  D. Kosenkov,  L. Koulias,  T. Kowalczyk,  C. M. Krauter,  
 K. Kue,  A. Kunitsa,  T. Kus,  A. Landau,  K. V. Lawler,  D. Lefrancois,  
 S. Lehtola,  Rain Li,  Yi-Pei Li,  Jiashu Liang,  M. Liebenthal,  
 Hung-Hsuan Lin,  You-Sheng Lin,  Fenglai Liu,  Kuan-Yu Liu,  
 M. Loipersberger,  A. Luenser,  A. Manjanath,  P. Manohar,  E. Mansoor,  
 S. F. Manzer,  Shan-Ping Mao,  A. V. Marenich,  T. Markovich,  S. Mason,  
 S. A. Maurer,  P. F. McLaughlin,  M. F. S. J. Menger,  J.-M. Mewes,  
 S. A. Mewes,  P. Morgante,  J. W. Mullinax,  K. J. Oosterbaan,  G. Paran,  
 Alexander C. Paul,  Suranjan K. Paul,  F. Pavosevic,  Zheng Pei,  S. Prager,  
 E. I. Proynov,  E. Ramos,  B. Rana,  A. E. Rask,  A. Rettig,  R. M. Richard,  
 F. Rob,  E. Rossomme,  T. Scheele,  M. Scheurer,  M. Schneider,  
 N. Sergueev,  S. M. Sharada,  W. Skomorowski,  D. W. Small,  C. J. Stein,  
 Yu-Chuan Su,  E. J. Sundstrom,  Zhen Tao,  J. Thirman,  T. Tsuchimochi,  
 N. M. Tubman,  S. P. Veccham,  O. Vydrov,  J. Wenzel,  J. Witte,  A. Yamada,  
 Kun Yao,  S. Yeganeh,  S. R. Yost,  A. Zech,  Igor Ying Zhang,  Xing Zhang,  
 Yu Zhang,  D. Zuev,  A. Aspuru-Guzik,  A. T. Bell,  N. A. Besley,  
 K. B. Bravaya,  B. R. Brooks,  D. Casanova,  Jeng-Da Chai,  S. Coriani,  
 C. J. Cramer,  A. E. DePrince, III,  R. A. DiStasio Jr.,  A. Dreuw,  
 B. D. Dunietz,  T. R. Furlani,  W. A. Goddard III,  S. Grimme,  
 S. Hammes-Schiffer,  T. Head-Gordon,  W. J. Hehre,  Chao-Ping Hsu,  
 T.-C. Jagau,  Yousung Jung,  A. Klamt,  Jing Kong,  D. S. Lambrecht,  
 WanZhen Liang,  N. J. Mayhall,  C. W. McCurdy,  J. B. Neaton,  
 C. Ochsenfeld,  J. A. Parkhill,  R. Peverati,  V. A. Rassolov,  Yihan Shao,  
 L. V. Slipchenko,  T. Stauch,  R. P. Steele,  J. E. Subotnik,  
 A. J. W. Thom,  A. Tkatchenko,  D. G. Truhlar,  T. Van Voorhis,  
 T. A. Wesolowski,  K. B. Whaley,  H. L. Woodcock III,  P. M. Zimmerman,  
 S. Faraji,  P. M. W. Gill,  M. Head-Gordon,  J. M. Herbert,  A. I. Krylov

 Additional authors for Version 5.4.1: 
 S. Kotaru,  Shaozhi Li,  Xiangyuan Li,  F. Matz,  A. Molle,  Haisheng Ren,  
 Yingli Su,  Hung-Yi Tsai,  C. Utku,  Fang Wang

 Contributors to earlier versions of Q-Chem not listed above: 
 R. D. Adamson,  B. Austin,  R. Baer,  J. Baker,  G. J. O. Beran,  
 K. Brandhorst,  S. T. Brown,  E. F. C. Byrd,  A. K. Chakraborty,  
 G. K. L. Chan,  Chun-Min Chang,  Yunqing Chen,  C.-L. Cheng,  
 Siu Hung Chien,  D. M. Chipman,  D. L. Crittenden,  H. Dachsel,  
 R. J. Doerksen,  A. D. Dutoi,  R. G. Edgar,  J. Fosso-Tande,  
 L. Fusti-Molnar,  D. Ghosh,  A. Ghysels,  A. Golubeva-Zadorozhnaya,  
 J. Gonthier,  M. S. Gordon,  S. R. Gwaltney,  G. Hawkins,  J. E. Herr,  
 A. Heyden,  S. Hirata,  E. G. Hohenstein,  G. Kedziora,  F. J. Keil,  
 C. Kelley,  Jihan Kim,  R. A. King,  R. Z. Khaliullin,  P. P. Korambath,  
 W. Kurlancheek,  A. Laurent,  A. M. Lee,  M. S. Lee,  S. V. Levchenko,  
 Ching Yeh Lin,  D. Liotard,  E. Livshits,  R. C. Lochan,  I. Lotan,  
 L. A. Martinez-Martinez,  P. E. Maslen,  N. Nair,  D. P. O'Neill,  
 D. Neuhauser,  E. Neuscamman,  C. M. Oana,  R. Olivares-Amaya,  R. Olson,  
 T. M. Perrine,  B. Peters,  P. A. Pieniazek,  A. Prociuk,  Y. M. Rhee,  
 J. Ritchie,  M. A. Rohrdanz,  E. Rosta,  N. J. Russ,  H. F. Schaefer III,  
 M. W. Schmidt,  N. E. Schultz,  S. Sharma,  N. Shenvi,  C. D. Sherrill,  
 A. C. Simmonett,  A. Sodt,  T. Stein,  D. Stuck,  K. S. Thanthiriwatte,  
 V. Vanovschi,  L. Vogt,  Tao Wang,  A. Warshel,  M. A. Watson,  
 C. F. Williams,  Q. Wu,  X. Xu,  Jun Yang,  W. Zhang,  Yan Zhao

 Please cite Q-Chem as follows:
 Y. Shao et al., Mol. Phys. 113, 184-215 (2015)
 DOI: 10.1080/00268976.2014.952696

 Q-Chem 5.4.1 for Intel X86 EM64T Linux

 Parts of Q-Chem use Armadillo 9.800.1 (Horizon Scraper).
 http://arma.sourceforge.net/

 Q-Chem begins on Thu May  1 23:31:43 2025  

 Host: cpu298.baobab
0

     Scratch files written to /srv/beegfs/scratch/users/f/fum/qchem2014058//
 Processing $rem in /home/share/wesolowski/qc5.aug2021.FDE/config/preferences:
 Processing $rem in /home/fum/.qchemrc:
 Symmetry turned off for FDE calculation
 Symmetry disabled for mixed basis and EFP jobs.

 Checking the input file for inconsistencies... 	...done.

--------------------------------------------------------------
User input:
--------------------------------------------------------------
$rem
sym_ignore true
method hf
basis mixed
fde true
PURECART 2
mem_static = 1024
mem_total = 50000
$end

$molecule
-1 1
S    0.70955    -0.28088    -1.53333
C    0.46967    -0.20843    0.13142
N    0.36180    -0.12531    1.30404
Gh  -1.4840500000    -2.4338300000    -1.1651400000
Gh  -1.0121100000    -3.3058300000    -1.4099100000
Gh  -0.8123400000    -1.7394400000    -1.4038700000
Gh  -2.2391500000     1.5097600000    -0.6372100000
Gh  -1.5256800000     2.1457600000    -0.5756400000
Gh  -1.9188100000     0.8217500000     0.0320300000
Gh  -3.4617700000    -2.3334400000    -3.0933300000
Gh  -2.7673300000    -2.5121700000    -2.4228200000
Gh  -4.1024100000    -2.9927500000    -2.7630200000
Gh   3.9845400000    -0.2681400000     0.4681400000
Gh   4.8605200000    -0.6380800000     0.3981900000
Gh   3.8680600000    -0.3193200000     1.4658300000
Gh  -0.2542800000     3.2136400000     0.0129600000
Gh  -0.5989800000     3.5516700000     0.8538000000
Gh   0.6481900000     2.9749000000     0.1576700000
Gh   3.7197500000    -1.7691700000    -3.5476700000
Gh   3.3151400000    -0.9410300000    -3.1451400000
Gh   4.0736000000    -1.3429600000    -4.3751500000
Gh  -3.5648400000    -0.3346600000     2.3116800000
Gh  -4.1172600000    -0.3774900000     3.0837500000
Gh  -3.8083200000     0.5116700000     1.8687800000
Gh   2.5693100000     0.4588900000     3.1042900000
Gh   2.6923400000     1.3784200000     3.2381200000
Gh   1.7468600000     0.2737200000     2.6150700000
Gh   0.6603700000     2.1558300000    -3.3633600000
Gh   0.7133400000     1.5413700000    -2.6540600000
Gh   1.3205300000     2.8282100000    -3.1167700000
Gh   4.0893700000     2.0240000000    -1.2987700000
Gh   3.6448400000     2.6034100000    -0.6181400000
Gh   3.7112000000     1.1745200000    -1.0736300000
Gh  -2.3331300000     1.5777000000    -3.5082300000
Gh  -2.3785600000     1.5054000000    -2.4883400000
Gh  -1.3475700000     1.6248600000    -3.6269300000
Gh  -4.9623000000    -0.7643000000    -0.5974700000
Gh  -4.5400200000    -0.7433800000     0.2773600000
Gh  -4.4109100000    -1.3730000000    -1.1706800000
Gh   1.5761700000    -3.2141300000    -3.9608000000
Gh   1.4736800000    -2.9116700000    -3.0555700000
Gh   2.4751600000    -2.8171500000    -4.0114000000
Gh  -0.9810700000    -2.3944500000     4.2895000000
Gh  -1.6633300000    -1.9917400000     4.8657300000
Gh  -1.0829700000    -2.1369700000     3.3796100000
Gh  -1.8983200000    -2.5847600000     1.6702500000
Gh  -2.3718600000    -1.7145400000     1.7112500000
Gh  -1.3928100000    -2.5490300000     0.8347100000
Gh   2.3182500000     2.7136800000     0.7021400000
Gh   2.6383400000     3.2698000000     1.3988800000
Gh   2.2239000000     1.8273400000     1.0517300000
Gh  -1.0614300000     3.6199400000     2.6296600000
Gh  -1.0886100000     2.8173700000     3.1818700000
Gh  -1.7922300000     4.1687300000     3.0502200000
Gh   2.3761500000     3.1049900000     4.0244000000
Gh   1.4939100000     3.1194400000     4.4981200000
Gh   2.9989000000     3.4027600000     4.7446400000
Gh  -1.7914800000     1.6701500000     4.5368700000
Gh  -2.1532700000     1.8932400000     5.4194500000
Gh  -1.9458300000     0.7188600000     4.4589700000
Gh  -0.5021100000    -4.7634200000    -1.7154700000
Gh  -0.3369100000    -5.3384100000    -0.9637300000
Gh   0.0303700000    -5.2633600000    -2.3854500000
$end

$fde
import_vmat true
debug true
$end

$basis
S 1
S   6   1.00
  2.1917100000D+04  1.8692408490D-03
  3.3014900000D+03  1.4230306460D-02
  7.5414600000D+02  6.9696231660D-02
  2.1271100000D+02  2.3848710830D-01
  6.7989600000D+01  4.8330721950D-01
  2.3051500000D+01  3.3807415360D-01
SP   6   1.00
  4.2373500000D+02  -2.3767704990D-03  4.0610099820D-03
  1.0071000000D+02  -3.1693006650D-02  3.0681299860D-02
  3.2159900000D+01  -1.1331702380D-01  1.3045199940D-01
  1.1807900000D+01  5.6090011770D-02  3.2720499850D-01
  4.6311000000D+00  5.9225512430D-01  4.5285099800D-01
  1.8702500000D+00  4.5500609550D-01  2.5604199890D-01
SP   3   1.00
  2.6158400000D+00  -2.5037311420D-01  -1.4510489550D-02
  9.2216700000D-01  6.6956763100D-02  3.1026277650D-01
  3.4128700000D-01  1.0545062690D+00  7.5448245650D-01
SP   1   1.00
  1.1716700000D-01  1.0000000000D+00  1.0000000000D+00
SP   1   1.00
  4.0500000000D-02  1.0000000000D+00  1.0000000000D+00
D   1   1.00
  6.5000000000D-01  1.0000000000D+00
****
C 2
S   6   1.00
  3.0475248800D+03  1.8347371320D-03
  4.5736951800D+02  1.4037322810D-02
  1.0394868500D+02  6.8842622260D-02
  2.9210155300D+01  2.3218444320D-01
  9.2866629600D+00  4.6794134840D-01
  3.1639269600D+00  3.6231198530D-01
SP   3   1.00
  7.8682723500D+00  -1.1933241980D-01  6.8999066590D-02
  1.8812885400D+00  -1.6085415170D-01  3.1642396100D-01
  5.4424925800D-01  1.1434564380D+00  7.4430829090D-01
SP   1   1.00
  1.6871447820D-01  1.0000000000D+00  1.0000000000D+00
SP   1   1.00
  4.3800000000D-02  1.0000000000D+00  1.0000000000D+00
D   1   1.00
  8.0000000000D-01  1.0000000000D+00
****
N 3
S   6   1.00
  4.1735114600D+03  1.8347721600D-03
  6.2745791100D+02  1.3994627000D-02
  1.4290209300D+02  6.8586551810D-02
  4.0234329300D+01  2.3224087300D-01
  1.2820212900D+01  4.6906994810D-01
  4.3904370100D+00  3.6045519910D-01
SP   3   1.00
  1.1626361860D+01  -1.1496118170D-01  6.7579743880D-02
  2.7162798070D+00  -1.6911747860D-01  3.2390729590D-01
  7.7221839660D-01  1.1458519470D+00  7.4089513980D-01
SP   1   1.00
  2.1203149750D-01  1.0000000000D+00  1.0000000000D+00
SP   1   1.00
  6.3900000000D-02  1.0000000000D+00  1.0000000000D+00
D   1   1.00
  8.0000000000D-01  1.0000000000D+00
****
O 4
SP   1   1.00
  8.4500000000D-02  1.0000000000D+00  1.0000000000D+00
****
H 5
S   1   1.00
  1.6127775880D-01  1.0000000000D+00
****
H 6
S   1   1.00
  1.6127775880D-01  1.0000000000D+00
****
O 7
SP   1   1.00
  8.4500000000D-02  1.0000000000D+00  1.0000000000D+00
****
H 8
S   1   1.00
  1.6127775880D-01  1.0000000000D+00
****
H 9
S   1   1.00
  1.6127775880D-01  1.0000000000D+00
****
O 10
SP   1   1.00
  8.4500000000D-02  1.0000000000D+00  1.0000000000D+00
****
H 11
S   1   1.00
  1.6127775880D-01  1.0000000000D+00
****
H 12
S   1   1.00
  1.6127775880D-01  1.0000000000D+00
****
O 13
SP   1   1.00
  8.4500000000D-02  1.0000000000D+00  1.0000000000D+00
****
H 14
S   1   1.00
  1.6127775880D-01  1.0000000000D+00
****
H 15
S   1   1.00
  1.6127775880D-01  1.0000000000D+00
****
O 16
SP   1   1.00
  8.4500000000D-02  1.0000000000D+00  1.0000000000D+00
****
H 17
S   1   1.00
  1.6127775880D-01  1.0000000000D+00
****
H 18
S   1   1.00
  1.6127775880D-01  1.0000000000D+00
****
O 19
SP   1   1.00
  8.4500000000D-02  1.0000000000D+00  1.0000000000D+00
****
H 20
S   1   1.00
  1.6127775880D-01  1.0000000000D+00
****
H 21
S   1   1.00
  1.6127775880D-01  1.0000000000D+00
****
O 22
SP   1   1.00
  8.4500000000D-02  1.0000000000D+00  1.0000000000D+00
****
H 23
S   1   1.00
  1.6127775880D-01  1.0000000000D+00
****
H 24
S   1   1.00
  1.6127775880D-01  1.0000000000D+00
****
O 25
SP   1   1.00
  8.4500000000D-02  1.0000000000D+00  1.0000000000D+00
****
H 26
S   1   1.00
  1.6127775880D-01  1.0000000000D+00
****
H 27
S   1   1.00
  1.6127775880D-01  1.0000000000D+00
****
O 28
SP   1   1.00
  8.4500000000D-02  1.0000000000D+00  1.0000000000D+00
****
H 29
S   1   1.00
  1.6127775880D-01  1.0000000000D+00
****
H 30
S   1   1.00
  1.6127775880D-01  1.0000000000D+00
****
O 31
SP   1   1.00
  8.4500000000D-02  1.0000000000D+00  1.0000000000D+00
****
H 32
S   1   1.00
  1.6127775880D-01  1.0000000000D+00
****
H 33
S   1   1.00
  1.6127775880D-01  1.0000000000D+00
****
O 34
SP   1   1.00
  8.4500000000D-02  1.0000000000D+00  1.0000000000D+00
****
H 35
S   1   1.00
  1.6127775880D-01  1.0000000000D+00
****
H 36
S   1   1.00
  1.6127775880D-01  1.0000000000D+00
****
O 37
SP   1   1.00
  8.4500000000D-02  1.0000000000D+00  1.0000000000D+00
****
H 38
S   1   1.00
  1.6127775880D-01  1.0000000000D+00
****
H 39
S   1   1.00
  1.6127775880D-01  1.0000000000D+00
****
O 40
SP   1   1.00
  8.4500000000D-02  1.0000000000D+00  1.0000000000D+00
****
H 41
S   1   1.00
  1.6127775880D-01  1.0000000000D+00
****
H 42
S   1   1.00
  1.6127775880D-01  1.0000000000D+00
****
O 43
SP   1   1.00
  8.4500000000D-02  1.0000000000D+00  1.0000000000D+00
****
H 44
S   1   1.00
  1.6127775880D-01  1.0000000000D+00
****
H 45
S   1   1.00
  1.6127775880D-01  1.0000000000D+00
****
O 46
SP   1   1.00
  8.4500000000D-02  1.0000000000D+00  1.0000000000D+00
****
H 47
S   1   1.00
  1.6127775880D-01  1.0000000000D+00
****
H 48
S   1   1.00
  1.6127775880D-01  1.0000000000D+00
****
O 49
SP   1   1.00
  8.4500000000D-02  1.0000000000D+00  1.0000000000D+00
****
H 50
S   1   1.00
  1.6127775880D-01  1.0000000000D+00
****
H 51
S   1   1.00
  1.6127775880D-01  1.0000000000D+00
****
O 52
SP   1   1.00
  8.4500000000D-02  1.0000000000D+00  1.0000000000D+00
****
H 53
S   1   1.00
  1.6127775880D-01  1.0000000000D+00
****
H 54
S   1   1.00
  1.6127775880D-01  1.0000000000D+00
****
O 55
SP   1   1.00
  8.4500000000D-02  1.0000000000D+00  1.0000000000D+00
****
H 56
S   1   1.00
  1.6127775880D-01  1.0000000000D+00
****
H 57
S   1   1.00
  1.6127775880D-01  1.0000000000D+00
****
O 58
SP   1   1.00
  8.4500000000D-02  1.0000000000D+00  1.0000000000D+00
****
H 59
S   1   1.00
  1.6127775880D-01  1.0000000000D+00
****
H 60
S   1   1.00
  1.6127775880D-01  1.0000000000D+00
****
O 61
SP   1   1.00
  8.4500000000D-02  1.0000000000D+00  1.0000000000D+00
****
H 62
S   1   1.00
  1.6127775880D-01  1.0000000000D+00
****
H 63
S   1   1.00
  1.6127775880D-01  1.0000000000D+00
****
$end
--------------------------------------------------------------
 ----------------------------------------------------------------
             Standard Nuclear Orientation (Angstroms)
    I     Atom           X                Y                Z
 ----------------------------------------------------------------
    1      S       0.7095500000    -0.2808800000    -1.5333300000
    2      C       0.4696700000    -0.2084300000     0.1314200000
    3      N       0.3618000000    -0.1253100000     1.3040400000
    4      GH     -1.4840500000    -2.4338300000    -1.1651400000
    5      GH     -1.0121100000    -3.3058300000    -1.4099100000
    6      GH     -0.8123400000    -1.7394400000    -1.4038700000
    7      GH     -2.2391500000     1.5097600000    -0.6372100000
    8      GH     -1.5256800000     2.1457600000    -0.5756400000
    9      GH     -1.9188100000     0.8217500000     0.0320300000
   10      GH     -3.4617700000    -2.3334400000    -3.0933300000
   11      GH     -2.7673300000    -2.5121700000    -2.4228200000
   12      GH     -4.1024100000    -2.9927500000    -2.7630200000
   13      GH      3.9845400000    -0.2681400000     0.4681400000
   14      GH      4.8605200000    -0.6380800000     0.3981900000
   15      GH      3.8680600000    -0.3193200000     1.4658300000
   16      GH     -0.2542800000     3.2136400000     0.0129600000
   17      GH     -0.5989800000     3.5516700000     0.8538000000
   18      GH      0.6481900000     2.9749000000     0.1576700000
   19      GH      3.7197500000    -1.7691700000    -3.5476700000
   20      GH      3.3151400000    -0.9410300000    -3.1451400000
   21      GH      4.0736000000    -1.3429600000    -4.3751500000
   22      GH     -3.5648400000    -0.3346600000     2.3116800000
   23      GH     -4.1172600000    -0.3774900000     3.0837500000
   24      GH     -3.8083200000     0.5116700000     1.8687800000
   25      GH      2.5693100000     0.4588900000     3.1042900000
   26      GH      2.6923400000     1.3784200000     3.2381200000
   27      GH      1.7468600000     0.2737200000     2.6150700000
   28      GH      0.6603700000     2.1558300000    -3.3633600000
   29      GH      0.7133400000     1.5413700000    -2.6540600000
   30      GH      1.3205300000     2.8282100000    -3.1167700000
   31      GH      4.0893700000     2.0240000000    -1.2987700000
   32      GH      3.6448400000     2.6034100000    -0.6181400000
   33      GH      3.7112000000     1.1745200000    -1.0736300000
   34      GH     -2.3331300000     1.5777000000    -3.5082300000
   35      GH     -2.3785600000     1.5054000000    -2.4883400000
   36      GH     -1.3475700000     1.6248600000    -3.6269300000
   37      GH     -4.9623000000    -0.7643000000    -0.5974700000
   38      GH     -4.5400200000    -0.7433800000     0.2773600000
   39      GH     -4.4109100000    -1.3730000000    -1.1706800000
   40      GH      1.5761700000    -3.2141300000    -3.9608000000
   41      GH      1.4736800000    -2.9116700000    -3.0555700000
   42      GH      2.4751600000    -2.8171500000    -4.0114000000
   43      GH     -0.9810700000    -2.3944500000     4.2895000000
   44      GH     -1.6633300000    -1.9917400000     4.8657300000
   45      GH     -1.0829700000    -2.1369700000     3.3796100000
   46      GH     -1.8983200000    -2.5847600000     1.6702500000
   47      GH     -2.3718600000    -1.7145400000     1.7112500000
   48      GH     -1.3928100000    -2.5490300000     0.8347100000
   49      GH      2.3182500000     2.7136800000     0.7021400000
   50      GH      2.6383400000     3.2698000000     1.3988800000
   51      GH      2.2239000000     1.8273400000     1.0517300000
   52      GH     -1.0614300000     3.6199400000     2.6296600000
   53      GH     -1.0886100000     2.8173700000     3.1818700000
   54      GH     -1.7922300000     4.1687300000     3.0502200000
   55      GH      2.3761500000     3.1049900000     4.0244000000
   56      GH      1.4939100000     3.1194400000     4.4981200000
   57      GH      2.9989000000     3.4027600000     4.7446400000
   58      GH     -1.7914800000     1.6701500000     4.5368700000
   59      GH     -2.1532700000     1.8932400000     5.4194500000
   60      GH     -1.9458300000     0.7188600000     4.4589700000
   61      GH     -0.5021100000    -4.7634200000    -1.7154700000
   62      GH     -0.3369100000    -5.3384100000    -0.9637300000
   63      GH      0.0303700000    -5.2633600000    -2.3854500000
 ----------------------------------------------------------------
 Nuclear Repulsion Energy =          69.70542897 hartrees
 There are       15 alpha and       15 beta electrons
 Requested basis set is non-standard
 There are 76 shells and 181 basis functions

 Total QAlloc Memory Limit  50000 MB
 Mega-Array Size      1001 MB
 MEM_STATIC part      1024 MB
 A cutoff of  1.0D-08 yielded   2483 shell pairs
 There are     15572 function pairs
 Smallest overlap matrix eigenvalue = 4.47E-05

 Q-Chem warning in module stvman/mkSTV.C, line 323:

 Overlap eigenvalue is smaller than square root of threshold
 Use THRESH >= 12 to get rid of this warning


 Scale SEOQF with 1.000000e-01/1.000000e-02/1.000000e-02

 Standard Electronic Orientation quadrupole field applied
 Nucleus-field energy     =    -0.0000000002 hartrees

********************************************************************************
*                                                                              *
*                      ___  ___  ___       __ __                               *
*                     | __>| . \| __> ___ |  \  \ ___ ._ _                     *
*                     | _> | | || _> |___||     |<_> || ' |                    *
*                     |_|  |___/|___>     |_|_|_|<_ _||_|_|                    *
*                                                                              *
*                                   FDE-Man by                                 *
*                          Stefan Prager and  Alex Zech                        *
*                                   Groups of                                  *
*                     Andreas Dreuw and Tomasz Wesolowski                      *
*                                                                              *
********************************************************************************

--------------------------------------------------------------------------------
| Single FDEman:                      Creating FDE_single object                      |
--------------------------------------------------------------------------------
Passed Basis definitions
Number of Atoms = 63
Read geometry file
Done saving geometry
Passed Geometry definitions
Passed electron count definitions
--------------------------------------------------------------------------------
| Single FDEman:                     Processing user-defined input                    |
--------------------------------------------------------------------------------
--------------------------------------------------------------------------------
| Single FDEman:                       Checking Input variables                       |
--------------------------------------------------------------------------------
(to be imported from file 'FDE_vembmat.txt')
Done with all the checks!
Done Checking
REM_LEVEXC   = 0
REM_LEVCOR   = 0
REM_EOM_CORR = -999999
method object A instantiated successfully.
===FDE=== FDE-Man constructor finished.
===FDE=== RUN
--------------------------------------------------------------------------------
| Single FDEman:              Import embedding potential in matrix form.              |
--------------------------------------------------------------------------------
File FDE_vembmat.txtsuccessfully opened
 Counted lines in opened file: 32761
 Expected Array size: 32761
===FDE=== Vemb import section done!
--------------------------------------------------------------------------------
| Single FDEman:                        Running FDE calculation                       |
--------------------------------------------------------------------------------
===FDE=== run_fde_calculation()
Variables in HF setup
REM_LEVEXC   = 0
REM_LEVCOR   = 0
REM_EOM_CORR = -999999
 Guess MOs from core Hamiltonian diagonalization
 A restricted Hartree-Fock SCF calculation will be
 performed using Pulay DIIS extrapolation
 SCF converges when DIIS error is below 1.0E-05
 using 20 threads for integral computing
 -------------------------------------------------------
 OpenMP Integral computing Module                
 Release: version 1.0, May 2013, Q-Chem Inc. Pittsburgh 
 -------------------------------------------------------
 Using embedding potential from FDE-Man
 Integrated coulomb potential: 0.0000000000
 Integrated nuclear potential: 0.0000000000
 Integrated electrostatic embedding potential: 0.0000000000
 Integrated non-add. XC potential: -1.5814751947
 Integrated non-add. kinetic potential: 0.0000000000
 Integrated non-electrostatic embedding potential: -1.5814751947
 Integrated total embedding potential: -1.5814751947
 ---------------------------------------
  Cycle       Energy         DIIS Error
 ---------------------------------------
    1    -468.8522942163      5.51E-02
 Using embedding potential from FDE-Man
 Integrated coulomb potential: 0.0000000000
 Integrated nuclear potential: 0.0000000000
 Integrated electrostatic embedding potential: 0.0000000000
 Integrated non-add. XC potential: -1.4686026455
 Integrated non-add. kinetic potential: 0.0000000000
 Integrated non-electrostatic embedding potential: -1.4686026455
 Integrated total embedding potential: -1.4686026455
    2    -466.1765336218      4.47E-02
 Using embedding potential from FDE-Man
 Integrated coulomb potential: 0.0000000000
 Integrated nuclear potential: 0.0000000000
 Integrated electrostatic embedding potential: 0.0000000000
 Integrated non-add. XC potential: -1.5547633635
 Integrated non-add. kinetic potential: 0.0000000000
 Integrated non-electrostatic embedding potential: -1.5547633635
 Integrated total embedding potential: -1.5547633635
    3    -482.8436400574      2.76E-02
 Using embedding potential from FDE-Man
 Integrated coulomb potential: 0.0000000000
 Integrated nuclear potential: 0.0000000000
 Integrated electrostatic embedding potential: 0.0000000000
 Integrated non-add. XC potential: -1.5956421484
 Integrated non-add. kinetic potential: 0.0000000000
 Integrated non-electrostatic embedding potential: -1.5956421484
 Integrated total embedding potential: -1.5956421484
    4    -488.5540215460      1.62E-02
 Using embedding potential from FDE-Man
 Integrated coulomb potential: 0.0000000000
 Integrated nuclear potential: 0.0000000000
 Integrated electrostatic embedding potential: 0.0000000000
 Integrated non-add. XC potential: -1.5896993555
 Integrated non-add. kinetic potential: 0.0000000000
 Integrated non-electrostatic embedding potential: -1.5896993555
 Integrated total embedding potential: -1.5896993555
    5    -489.6222267582      5.06E-03
 Using embedding potential from FDE-Man
 Integrated coulomb potential: 0.0000000000
 Integrated nuclear potential: 0.0000000000
 Integrated electrostatic embedding potential: 0.0000000000
 Integrated non-add. XC potential: -1.5857110776
 Integrated non-add. kinetic potential: 0.0000000000
 Integrated non-electrostatic embedding potential: -1.5857110776
 Integrated total embedding potential: -1.5857110776
    6    -489.6761766890      3.31E-03
 Using embedding potential from FDE-Man
 Integrated coulomb potential: 0.0000000000
 Integrated nuclear potential: 0.0000000000
 Integrated electrostatic embedding potential: 0.0000000000
 Integrated non-add. XC potential: -1.5858282808
 Integrated non-add. kinetic potential: 0.0000000000
 Integrated non-electrostatic embedding potential: -1.5858282808
 Integrated total embedding potential: -1.5858282808
    7    -489.7324907862      1.32E-03
 Using embedding potential from FDE-Man
 Integrated coulomb potential: 0.0000000000
 Integrated nuclear potential: 0.0000000000
 Integrated electrostatic embedding potential: 0.0000000000
 Integrated non-add. XC potential: -1.5868028570
 Integrated non-add. kinetic potential: 0.0000000000
 Integrated non-electrostatic embedding potential: -1.5868028570
 Integrated total embedding potential: -1.5868028570
    8    -489.7395700703      2.43E-04
 Using embedding potential from FDE-Man
 Integrated coulomb potential: 0.0000000000
 Integrated nuclear potential: 0.0000000000
 Integrated electrostatic embedding potential: 0.0000000000
 Integrated non-add. XC potential: -1.5868456521
 Integrated non-add. kinetic potential: 0.0000000000
 Integrated non-electrostatic embedding potential: -1.5868456521
 Integrated total embedding potential: -1.5868456521
    9    -489.7399501576      6.72E-05
 Using embedding potential from FDE-Man
 Integrated coulomb potential: 0.0000000000
 Integrated nuclear potential: 0.0000000000
 Integrated electrostatic embedding potential: 0.0000000000
 Integrated non-add. XC potential: -1.5868037040
 Integrated non-add. kinetic potential: 0.0000000000
 Integrated non-electrostatic embedding potential: -1.5868037040
 Integrated total embedding potential: -1.5868037040
   10    -489.7400580778      2.04E-05
 Using embedding potential from FDE-Man
 Integrated coulomb potential: 0.0000000000
 Integrated nuclear potential: 0.0000000000
 Integrated electrostatic embedding potential: 0.0000000000
 Integrated non-add. XC potential: -1.5868069552
 Integrated non-add. kinetic potential: 0.0000000000
 Integrated non-electrostatic embedding potential: -1.5868069552
 Integrated total embedding potential: -1.5868069552
   11    -489.7400546990      3.83E-06 Convergence criterion met
 ---------------------------------------
 SCF time:  CPU 13.35 s  wall 2.98 s
 SCF   energy in the final basis set = -489.74005470
 Total energy in the final basis set = -489.74005470

 --------------------------------------------------------------

                    Orbital Energies (a.u.)
 --------------------------------------------------------------

 Alpha MOs
 -- Occupied --
-91.8539 -15.4906 -11.2243  -8.8435  -6.5310  -6.5271  -6.5269  -1.1084
 -0.8789  -0.5105  -0.4283  -0.3901  -0.3849  -0.2338  -0.2229
 -- Virtual --
  0.0796   0.1106   0.1365   0.1416   0.1450   0.1535   0.1650   0.1784
  0.1810   0.1917   0.2014   0.2068   0.2099   0.2170   0.2214   0.2265
  0.2318   0.2400   0.2428   0.2454   0.2558   0.2620   0.2660   0.2694
  0.2778   0.2799   0.2844   0.2911   0.2944   0.2973   0.2984   0.3052
  0.3075   0.3107   0.3237   0.3270   0.3273   0.3370   0.3389   0.3423
  0.3460   0.3486   0.3542   0.3589   0.3635   0.3676   0.3717   0.3782
  0.3794   0.3840   0.3883   0.3938   0.3986   0.3994   0.4074   0.4125
  0.4144   0.4187   0.4275   0.4367   0.4397   0.4419   0.4463   0.4519
  0.4543   0.4581   0.4626   0.4717   0.4741   0.4760   0.4843   0.4880
  0.4903   0.4948   0.4971   0.5012   0.5081   0.5179   0.5183   0.5202
  0.5330   0.5359   0.5387   0.5465   0.5489   0.5569   0.5622   0.5705
  0.5727   0.5752   0.5810   0.5886   0.5948   0.5994   0.6050   0.6119
  0.6155   0.6217   0.6233   0.6346   0.6401   0.6501   0.6527   0.6579
  0.6633   0.6657   0.6708   0.6781   0.6818   0.6901   0.6946   0.7010
  0.7097   0.7147   0.7279   0.7287   0.7350   0.7400   0.7425   0.7476
  0.7616   0.7635   0.7753   0.7866   0.7996   0.8078   0.8195   0.8237
  0.8329   0.8391   0.8532   0.8602   0.8920   0.9074   0.9200   0.9587
  0.9879   1.0313   1.0868   1.1091   1.1545   1.1824   1.2130   1.2878
  1.3048   1.3152   1.3389   1.4239   1.4707   1.5110   1.5429   1.6653
  1.8061   1.9709   1.9890   2.0417   2.0545   2.2416   2.4024   3.0078
  3.0793   3.0851   3.2248   3.4401   4.0017   4.3403
 --------------------------------------------------------------

          Ground-State Mulliken Net Atomic Charges

     Atom                 Charge (a.u.)
  ----------------------------------------
      1 S                    -0.984778
      2 C                     0.594727
      3 N                    -0.696698
      4 GH                    0.061818
      5 GH                    0.000445
      6 GH                   -0.038574
      7 GH                    0.020548
      8 GH                   -0.001712
      9 GH                   -0.002864
     10 GH                   -0.000475
     11 GH                   -0.000165
     12 GH                    0.000002
     13 GH                    0.007431
     14 GH                    0.000075
     15 GH                   -0.000371
     16 GH                    0.004357
     17 GH                   -0.000025
     18 GH                   -0.000422
     19 GH                    0.003103
     20 GH                   -0.001742
     21 GH                    0.000116
     22 GH                   -0.000344
     23 GH                    0.000007
     24 GH                    0.000086
     25 GH                    0.004199
     26 GH                    0.000464
     27 GH                   -0.005017
     28 GH                    0.045384
     29 GH                   -0.015531
     30 GH                   -0.000009
     31 GH                    0.003329
     32 GH                   -0.000008
     33 GH                   -0.000942
     34 GH                    0.005864
     35 GH                   -0.001185
     36 GH                   -0.001402
     37 GH                   -0.000105
     38 GH                    0.000011
     39 GH                    0.000028
     40 GH                    0.003778
     41 GH                   -0.001600
     42 GH                   -0.000044
     43 GH                   -0.000146
     44 GH                    0.000030
     45 GH                   -0.000463
     46 GH                    0.010015
     47 GH                   -0.001331
     48 GH                   -0.002158
     49 GH                   -0.003524
     50 GH                    0.000251
     51 GH                   -0.002299
     52 GH                    0.000016
     53 GH                   -0.000130
     54 GH                    0.000004
     55 GH                   -0.000461
     56 GH                    0.000024
     57 GH                   -0.000002
     58 GH                    0.000228
     59 GH                    0.000005
     60 GH                   -0.000055
     61 GH                   -0.001925
     62 GH                    0.000062
     63 GH                    0.000102
  ----------------------------------------
  Sum of atomic charges =    -1.000000

 -----------------------------------------------------------------
                    Cartesian Multipole Moments
 -----------------------------------------------------------------
    Charge (ESU x 10^10)
                -4.8032
    Dipole Moment (Debye)
         X      -2.8303      Y       0.9120      Z       0.4494
       Tot       3.0074
    Quadrupole Moments (Debye-Ang)
        XX     -30.1611     XY       0.5673     YY     -28.6544
        XZ       1.8207     YZ      -1.3508     ZZ     -39.8645
    Octopole Moments (Debye-Ang^2)
       XXX     -51.4456    XXY       6.9255    XYY     -17.0437
       YYY      19.9402    XXZ      17.1458    XYZ      -0.9478
       YYZ      16.1941    XZZ     -22.2865    YZZ       8.3747
       ZZZ      34.1777
    Hexadecapole Moments (Debye-Ang^3)
      XXXX    -104.6114   XXXY      12.8027   XXYY     -25.8034
      XYYY      12.7598   YYYY     -50.4758   XXXZ      46.0709
      XXYZ      -7.0365   XYYZ      15.2314   YYYZ     -19.4442
      XXZZ     -77.5362   XYZZ       4.9218   YYZZ     -66.3885
      XZZZ      36.4819   YZZZ     -16.9733   ZZZZ    -324.4504
 -----------------------------------------------------------------
===FDE=== HF_t: read energies successfully.
===FDE=== HF_t: Reading 'tot' density from file...Number of elements to read: 65522
...done!
===FDE=== HF_t: Reading 'diff' density from file...Number of elements to read: 65522
===FDE=== HF_t: Reading 'trans' density from file...Number of elements to read: 65522
Export of embedded densities finished successfully.
--------------------------------------------------------------------------------
| Single FDEman:                   FDET post-calculation evaluation                   |
--------------------------------------------------------------------------------
<fde>---------------Computing state-specific terms (rhoA_I)---------------</fde>
???         (FDE_util::fdes_printer)
********************************************************************************
*                                                                              *
*                               FDE-Man finished!                              *
*                    Thanks for using FDE-Man. Please cite:                    *
*                            DOI: 10.1063/1.4948741                            *
*                         DOI: 10.1021/acs.jctc.7b00461                        *
*                                                                              *
*                             List of Contributors:                            *
*                                 === Code ===                                 *
*                           Cristina Gonzalez-Espinoza                         *
*                                                                              *
*                            ===  Documentation ===                            *
*                                  Mingxue Fu                                  *
*                               Yann Gimbal-Zofka                              *
*                                Niccolo Ricardi                               *
*                                  Elias Polak                                 *
********************************************************************************

 Total job time:  5.27s(wall), 14.70s(cpu) 
 Thu May  1 23:31:48 2025

        *************************************************************
        *                                                           *
        *  Thank you very much for using Q-Chem.  Have a nice day.  *
        *                                                           *
        *************************************************************


 
User input: 2 of 2 
 
                  Welcome to Q-Chem
     A Quantum Leap Into The Future Of Chemistry


 Q-Chem 5.4 (devel), Q-Chem, Inc., Pleasanton, CA (2021)

 E. Epifanovsky,  A. T. B. Gilbert,  Xintian Feng,  Joonho Lee,  Yuezhi Mao,  
 N. Mardirossian,  P. Pokhilko,  A. White,  M. Wormit,  M. P. Coons,  
 A. L. Dempwolff,  Zhengting Gan,  D. Hait,  P. R. Horn,  L. D. Jacobson,  
 I. Kaliman,  J. Kussmann,  A. W. Lange,  Ka Un Lao,  D. S. Levine,  Jie Liu,  
 S. C. McKenzie,  A. F. Morrison,  K. Nanda,  F. Plasser,  D. R. Rehn,  
 M. L. Vidal,  Zhi-Qiang You,  Ying Zhu,  B. Alam,  B. Albrecht,  
 A. Aldossary,  E. Alguire,  J. H. Andersen,  D. Barton,  K. Begam,  A. Behn,  
 Y. A. Bernard,  E. J. Berquist,  H. Burton,  A. Carreras,  K. Carter-Fenk,  
 R. Chakraborty,  A. D. Chien,  K. D. Closser,  V. Cofer-Shabica,  
 S. Dasgupta,  Jia Deng,  M. de Wergifosse,  M. Diedenhofen,  Hainam Do,  
 S. Ehlert,  Po-Tung Fang,  S. Fatehi,  Qingguo Feng,  T. Friedhoff,  
 J. Gayvert,  Qinghui Ge,  G. Gidofalvi,  M. Goldey,  J. Gomes,  
 C. Gonzalez-Espinoza,  S. Gulania,  A. Gunina,  M. W. D. Hanson-Heine,  
 P. H. P. Harbach,  A. W. Hauser,  M. F. Herbst,  M. Hernandez Vera,  
 M. Hodecker,  Z. C. Holden,  S. Houck,  Xunkun Huang,  Kerwin Hui,  
 B. C. Huynh,  M. Ivanov,  Hyunjun Ji,  Hanjie Jiang,  B. Kaduk,  S. Kaehler,  
 K. Khistyaev,  Jaehoon Kim,  P. Klunzinger,  Z. Koczor-Benda,  
 Joong Hoon Koh,  D. Kosenkov,  L. Koulias,  T. Kowalczyk,  C. M. Krauter,  
 K. Kue,  A. Kunitsa,  T. Kus,  A. Landau,  K. V. Lawler,  D. Lefrancois,  
 S. Lehtola,  Rain Li,  Yi-Pei Li,  Jiashu Liang,  M. Liebenthal,  
 Hung-Hsuan Lin,  You-Sheng Lin,  Fenglai Liu,  Kuan-Yu Liu,  
 M. Loipersberger,  A. Luenser,  A. Manjanath,  P. Manohar,  E. Mansoor,  
 S. F. Manzer,  Shan-Ping Mao,  A. V. Marenich,  T. Markovich,  S. Mason,  
 S. A. Maurer,  P. F. McLaughlin,  M. F. S. J. Menger,  J.-M. Mewes,  
 S. A. Mewes,  P. Morgante,  J. W. Mullinax,  K. J. Oosterbaan,  G. Paran,  
 Alexander C. Paul,  Suranjan K. Paul,  F. Pavosevic,  Zheng Pei,  S. Prager,  
 E. I. Proynov,  E. Ramos,  B. Rana,  A. E. Rask,  A. Rettig,  R. M. Richard,  
 F. Rob,  E. Rossomme,  T. Scheele,  M. Scheurer,  M. Schneider,  
 N. Sergueev,  S. M. Sharada,  W. Skomorowski,  D. W. Small,  C. J. Stein,  
 Yu-Chuan Su,  E. J. Sundstrom,  Zhen Tao,  J. Thirman,  T. Tsuchimochi,  
 N. M. Tubman,  S. P. Veccham,  O. Vydrov,  J. Wenzel,  J. Witte,  A. Yamada,  
 Kun Yao,  S. Yeganeh,  S. R. Yost,  A. Zech,  Igor Ying Zhang,  Xing Zhang,  
 Yu Zhang,  D. Zuev,  A. Aspuru-Guzik,  A. T. Bell,  N. A. Besley,  
 K. B. Bravaya,  B. R. Brooks,  D. Casanova,  Jeng-Da Chai,  S. Coriani,  
 C. J. Cramer,  A. E. DePrince, III,  R. A. DiStasio Jr.,  A. Dreuw,  
 B. D. Dunietz,  T. R. Furlani,  W. A. Goddard III,  S. Grimme,  
 S. Hammes-Schiffer,  T. Head-Gordon,  W. J. Hehre,  Chao-Ping Hsu,  
 T.-C. Jagau,  Yousung Jung,  A. Klamt,  Jing Kong,  D. S. Lambrecht,  
 WanZhen Liang,  N. J. Mayhall,  C. W. McCurdy,  J. B. Neaton,  
 C. Ochsenfeld,  J. A. Parkhill,  R. Peverati,  V. A. Rassolov,  Yihan Shao,  
 L. V. Slipchenko,  T. Stauch,  R. P. Steele,  J. E. Subotnik,  
 A. J. W. Thom,  A. Tkatchenko,  D. G. Truhlar,  T. Van Voorhis,  
 T. A. Wesolowski,  K. B. Whaley,  H. L. Woodcock III,  P. M. Zimmerman,  
 S. Faraji,  P. M. W. Gill,  M. Head-Gordon,  J. M. Herbert,  A. I. Krylov

 Additional authors for Version 5.4.1: 
 S. Kotaru,  Shaozhi Li,  Xiangyuan Li,  F. Matz,  A. Molle,  Haisheng Ren,  
 Yingli Su,  Hung-Yi Tsai,  C. Utku,  Fang Wang

 Contributors to earlier versions of Q-Chem not listed above: 
 R. D. Adamson,  B. Austin,  R. Baer,  J. Baker,  G. J. O. Beran,  
 K. Brandhorst,  S. T. Brown,  E. F. C. Byrd,  A. K. Chakraborty,  
 G. K. L. Chan,  Chun-Min Chang,  Yunqing Chen,  C.-L. Cheng,  
 Siu Hung Chien,  D. M. Chipman,  D. L. Crittenden,  H. Dachsel,  
 R. J. Doerksen,  A. D. Dutoi,  R. G. Edgar,  J. Fosso-Tande,  
 L. Fusti-Molnar,  D. Ghosh,  A. Ghysels,  A. Golubeva-Zadorozhnaya,  
 J. Gonthier,  M. S. Gordon,  S. R. Gwaltney,  G. Hawkins,  J. E. Herr,  
 A. Heyden,  S. Hirata,  E. G. Hohenstein,  G. Kedziora,  F. J. Keil,  
 C. Kelley,  Jihan Kim,  R. A. King,  R. Z. Khaliullin,  P. P. Korambath,  
 W. Kurlancheek,  A. Laurent,  A. M. Lee,  M. S. Lee,  S. V. Levchenko,  
 Ching Yeh Lin,  D. Liotard,  E. Livshits,  R. C. Lochan,  I. Lotan,  
 L. A. Martinez-Martinez,  P. E. Maslen,  N. Nair,  D. P. O'Neill,  
 D. Neuhauser,  E. Neuscamman,  C. M. Oana,  R. Olivares-Amaya,  R. Olson,  
 T. M. Perrine,  B. Peters,  P. A. Pieniazek,  A. Prociuk,  Y. M. Rhee,  
 J. Ritchie,  M. A. Rohrdanz,  E. Rosta,  N. J. Russ,  H. F. Schaefer III,  
 M. W. Schmidt,  N. E. Schultz,  S. Sharma,  N. Shenvi,  C. D. Sherrill,  
 A. C. Simmonett,  A. Sodt,  T. Stein,  D. Stuck,  K. S. Thanthiriwatte,  
 V. Vanovschi,  L. Vogt,  Tao Wang,  A. Warshel,  M. A. Watson,  
 C. F. Williams,  Q. Wu,  X. Xu,  Jun Yang,  W. Zhang,  Yan Zhao

 Please cite Q-Chem as follows:
 Y. Shao et al., Mol. Phys. 113, 184-215 (2015)
 DOI: 10.1080/00268976.2014.952696

 Q-Chem 5.4.1 for Intel X86 EM64T Linux

 Parts of Q-Chem use Armadillo 9.800.1 (Horizon Scraper).
 http://arma.sourceforge.net/

 Q-Chem begins on Thu May  1 23:31:48 2025  

 Host: cpu298.baobab
0

     Scratch files written to /srv/beegfs/scratch/users/f/fum/qchem2014058//
 Processing $rem in /home/share/wesolowski/qc5.aug2021.FDE/config/preferences:
 Processing $rem in /home/fum/.qchemrc:
 Symmetry disabled for mixed basis and EFP jobs.

 Checking the input file for inconsistencies... 	...done.

--------------------------------------------------------------
User input:
--------------------------------------------------------------

$rem
sym_ignore = true
method = adc(2)
scf_guess = read
fde_read_pot = true
ee_states = 1
basis = mixed
PURECART 2
mem_static = 1024
mem_total = 50000
adc_davidson_maxiter = 900
adc_print = 3
adc_prop_es = true
gen_scfman = false
molden_format = true
fde_export_density = true
$end

$molecule
-1 1
S    0.70955    -0.28088    -1.53333
C    0.46967    -0.20843    0.13142
N    0.36180    -0.12531    1.30404
Gh  -1.4840500000    -2.4338300000    -1.1651400000
Gh  -1.0121100000    -3.3058300000    -1.4099100000
Gh  -0.8123400000    -1.7394400000    -1.4038700000
Gh  -2.2391500000     1.5097600000    -0.6372100000
Gh  -1.5256800000     2.1457600000    -0.5756400000
Gh  -1.9188100000     0.8217500000     0.0320300000
Gh  -3.4617700000    -2.3334400000    -3.0933300000
Gh  -2.7673300000    -2.5121700000    -2.4228200000
Gh  -4.1024100000    -2.9927500000    -2.7630200000
Gh   3.9845400000    -0.2681400000     0.4681400000
Gh   4.8605200000    -0.6380800000     0.3981900000
Gh   3.8680600000    -0.3193200000     1.4658300000
Gh  -0.2542800000     3.2136400000     0.0129600000
Gh  -0.5989800000     3.5516700000     0.8538000000
Gh   0.6481900000     2.9749000000     0.1576700000
Gh   3.7197500000    -1.7691700000    -3.5476700000
Gh   3.3151400000    -0.9410300000    -3.1451400000
Gh   4.0736000000    -1.3429600000    -4.3751500000
Gh  -3.5648400000    -0.3346600000     2.3116800000
Gh  -4.1172600000    -0.3774900000     3.0837500000
Gh  -3.8083200000     0.5116700000     1.8687800000
Gh   2.5693100000     0.4588900000     3.1042900000
Gh   2.6923400000     1.3784200000     3.2381200000
Gh   1.7468600000     0.2737200000     2.6150700000
Gh   0.6603700000     2.1558300000    -3.3633600000
Gh   0.7133400000     1.5413700000    -2.6540600000
Gh   1.3205300000     2.8282100000    -3.1167700000
Gh   4.0893700000     2.0240000000    -1.2987700000
Gh   3.6448400000     2.6034100000    -0.6181400000
Gh   3.7112000000     1.1745200000    -1.0736300000
Gh  -2.3331300000     1.5777000000    -3.5082300000
Gh  -2.3785600000     1.5054000000    -2.4883400000
Gh  -1.3475700000     1.6248600000    -3.6269300000
Gh  -4.9623000000    -0.7643000000    -0.5974700000
Gh  -4.5400200000    -0.7433800000     0.2773600000
Gh  -4.4109100000    -1.3730000000    -1.1706800000
Gh   1.5761700000    -3.2141300000    -3.9608000000
Gh   1.4736800000    -2.9116700000    -3.0555700000
Gh   2.4751600000    -2.8171500000    -4.0114000000
Gh  -0.9810700000    -2.3944500000     4.2895000000
Gh  -1.6633300000    -1.9917400000     4.8657300000
Gh  -1.0829700000    -2.1369700000     3.3796100000
Gh  -1.8983200000    -2.5847600000     1.6702500000
Gh  -2.3718600000    -1.7145400000     1.7112500000
Gh  -1.3928100000    -2.5490300000     0.8347100000
Gh   2.3182500000     2.7136800000     0.7021400000
Gh   2.6383400000     3.2698000000     1.3988800000
Gh   2.2239000000     1.8273400000     1.0517300000
Gh  -1.0614300000     3.6199400000     2.6296600000
Gh  -1.0886100000     2.8173700000     3.1818700000
Gh  -1.7922300000     4.1687300000     3.0502200000
Gh   2.3761500000     3.1049900000     4.0244000000
Gh   1.4939100000     3.1194400000     4.4981200000
Gh   2.9989000000     3.4027600000     4.7446400000
Gh  -1.7914800000     1.6701500000     4.5368700000
Gh  -2.1532700000     1.8932400000     5.4194500000
Gh  -1.9458300000     0.7188600000     4.4589700000
Gh  -0.5021100000    -4.7634200000    -1.7154700000
Gh  -0.3369100000    -5.3384100000    -0.9637300000
Gh   0.0303700000    -5.2633600000    -2.3854500000
$end

$basis
S 1
S   6   1.00
  2.1917100000D+04  1.8692408490D-03
  3.3014900000D+03  1.4230306460D-02
  7.5414600000D+02  6.9696231660D-02
  2.1271100000D+02  2.3848710830D-01
  6.7989600000D+01  4.8330721950D-01
  2.3051500000D+01  3.3807415360D-01
SP   6   1.00
  4.2373500000D+02  -2.3767704990D-03  4.0610099820D-03
  1.0071000000D+02  -3.1693006650D-02  3.0681299860D-02
  3.2159900000D+01  -1.1331702380D-01  1.3045199940D-01
  1.1807900000D+01  5.6090011770D-02  3.2720499850D-01
  4.6311000000D+00  5.9225512430D-01  4.5285099800D-01
  1.8702500000D+00  4.5500609550D-01  2.5604199890D-01
SP   3   1.00
  2.6158400000D+00  -2.5037311420D-01  -1.4510489550D-02
  9.2216700000D-01  6.6956763100D-02  3.1026277650D-01
  3.4128700000D-01  1.0545062690D+00  7.5448245650D-01
SP   1   1.00
  1.1716700000D-01  1.0000000000D+00  1.0000000000D+00
SP   1   1.00
  4.0500000000D-02  1.0000000000D+00  1.0000000000D+00
D   1   1.00
  6.5000000000D-01  1.0000000000D+00
****
C 2
S   6   1.00
  3.0475248800D+03  1.8347371320D-03
  4.5736951800D+02  1.4037322810D-02
  1.0394868500D+02  6.8842622260D-02
  2.9210155300D+01  2.3218444320D-01
  9.2866629600D+00  4.6794134840D-01
  3.1639269600D+00  3.6231198530D-01
SP   3   1.00
  7.8682723500D+00  -1.1933241980D-01  6.8999066590D-02
  1.8812885400D+00  -1.6085415170D-01  3.1642396100D-01
  5.4424925800D-01  1.1434564380D+00  7.4430829090D-01
SP   1   1.00
  1.6871447820D-01  1.0000000000D+00  1.0000000000D+00
SP   1   1.00
  4.3800000000D-02  1.0000000000D+00  1.0000000000D+00
D   1   1.00
  8.0000000000D-01  1.0000000000D+00
****
N 3
S   6   1.00
  4.1735114600D+03  1.8347721600D-03
  6.2745791100D+02  1.3994627000D-02
  1.4290209300D+02  6.8586551810D-02
  4.0234329300D+01  2.3224087300D-01
  1.2820212900D+01  4.6906994810D-01
  4.3904370100D+00  3.6045519910D-01
SP   3   1.00
  1.1626361860D+01  -1.1496118170D-01  6.7579743880D-02
  2.7162798070D+00  -1.6911747860D-01  3.2390729590D-01
  7.7221839660D-01  1.1458519470D+00  7.4089513980D-01
SP   1   1.00
  2.1203149750D-01  1.0000000000D+00  1.0000000000D+00
SP   1   1.00
  6.3900000000D-02  1.0000000000D+00  1.0000000000D+00
D   1   1.00
  8.0000000000D-01  1.0000000000D+00
****
O 4
SP   1   1.00
  8.4500000000D-02  1.0000000000D+00  1.0000000000D+00
****
H 5
S   1   1.00
  1.6127775880D-01  1.0000000000D+00
****
H 6
S   1   1.00
  1.6127775880D-01  1.0000000000D+00
****
O 7
SP   1   1.00
  8.4500000000D-02  1.0000000000D+00  1.0000000000D+00
****
H 8
S   1   1.00
  1.6127775880D-01  1.0000000000D+00
****
H 9
S   1   1.00
  1.6127775880D-01  1.0000000000D+00
****
O 10
SP   1   1.00
  8.4500000000D-02  1.0000000000D+00  1.0000000000D+00
****
H 11
S   1   1.00
  1.6127775880D-01  1.0000000000D+00
****
H 12
S   1   1.00
  1.6127775880D-01  1.0000000000D+00
****
O 13
SP   1   1.00
  8.4500000000D-02  1.0000000000D+00  1.0000000000D+00
****
H 14
S   1   1.00
  1.6127775880D-01  1.0000000000D+00
****
H 15
S   1   1.00
  1.6127775880D-01  1.0000000000D+00
****
O 16
SP   1   1.00
  8.4500000000D-02  1.0000000000D+00  1.0000000000D+00
****
H 17
S   1   1.00
  1.6127775880D-01  1.0000000000D+00
****
H 18
S   1   1.00
  1.6127775880D-01  1.0000000000D+00
****
O 19
SP   1   1.00
  8.4500000000D-02  1.0000000000D+00  1.0000000000D+00
****
H 20
S   1   1.00
  1.6127775880D-01  1.0000000000D+00
****
H 21
S   1   1.00
  1.6127775880D-01  1.0000000000D+00
****
O 22
SP   1   1.00
  8.4500000000D-02  1.0000000000D+00  1.0000000000D+00
****
H 23
S   1   1.00
  1.6127775880D-01  1.0000000000D+00
****
H 24
S   1   1.00
  1.6127775880D-01  1.0000000000D+00
****
O 25
SP   1   1.00
  8.4500000000D-02  1.0000000000D+00  1.0000000000D+00
****
H 26
S   1   1.00
  1.6127775880D-01  1.0000000000D+00
****
H 27
S   1   1.00
  1.6127775880D-01  1.0000000000D+00
****
O 28
SP   1   1.00
  8.4500000000D-02  1.0000000000D+00  1.0000000000D+00
****
H 29
S   1   1.00
  1.6127775880D-01  1.0000000000D+00
****
H 30
S   1   1.00
  1.6127775880D-01  1.0000000000D+00
****
O 31
SP   1   1.00
  8.4500000000D-02  1.0000000000D+00  1.0000000000D+00
****
H 32
S   1   1.00
  1.6127775880D-01  1.0000000000D+00
****
H 33
S   1   1.00
  1.6127775880D-01  1.0000000000D+00
****
O 34
SP   1   1.00
  8.4500000000D-02  1.0000000000D+00  1.0000000000D+00
****
H 35
S   1   1.00
  1.6127775880D-01  1.0000000000D+00
****
H 36
S   1   1.00
  1.6127775880D-01  1.0000000000D+00
****
O 37
SP   1   1.00
  8.4500000000D-02  1.0000000000D+00  1.0000000000D+00
****
H 38
S   1   1.00
  1.6127775880D-01  1.0000000000D+00
****
H 39
S   1   1.00
  1.6127775880D-01  1.0000000000D+00
****
O 40
SP   1   1.00
  8.4500000000D-02  1.0000000000D+00  1.0000000000D+00
****
H 41
S   1   1.00
  1.6127775880D-01  1.0000000000D+00
****
H 42
S   1   1.00
  1.6127775880D-01  1.0000000000D+00
****
O 43
SP   1   1.00
  8.4500000000D-02  1.0000000000D+00  1.0000000000D+00
****
H 44
S   1   1.00
  1.6127775880D-01  1.0000000000D+00
****
H 45
S   1   1.00
  1.6127775880D-01  1.0000000000D+00
****
O 46
SP   1   1.00
  8.4500000000D-02  1.0000000000D+00  1.0000000000D+00
****
H 47
S   1   1.00
  1.6127775880D-01  1.0000000000D+00
****
H 48
S   1   1.00
  1.6127775880D-01  1.0000000000D+00
****
O 49
SP   1   1.00
  8.4500000000D-02  1.0000000000D+00  1.0000000000D+00
****
H 50
S   1   1.00
  1.6127775880D-01  1.0000000000D+00
****
H 51
S   1   1.00
  1.6127775880D-01  1.0000000000D+00
****
O 52
SP   1   1.00
  8.4500000000D-02  1.0000000000D+00  1.0000000000D+00
****
H 53
S   1   1.00
  1.6127775880D-01  1.0000000000D+00
****
H 54
S   1   1.00
  1.6127775880D-01  1.0000000000D+00
****
O 55
SP   1   1.00
  8.4500000000D-02  1.0000000000D+00  1.0000000000D+00
****
H 56
S   1   1.00
  1.6127775880D-01  1.0000000000D+00
****
H 57
S   1   1.00
  1.6127775880D-01  1.0000000000D+00
****
O 58
SP   1   1.00
  8.4500000000D-02  1.0000000000D+00  1.0000000000D+00
****
H 59
S   1   1.00
  1.6127775880D-01  1.0000000000D+00
****
H 60
S   1   1.00
  1.6127775880D-01  1.0000000000D+00
****
O 61
SP   1   1.00
  8.4500000000D-02  1.0000000000D+00  1.0000000000D+00
****
H 62
S   1   1.00
  1.6127775880D-01  1.0000000000D+00
****
H 63
S   1   1.00
  1.6127775880D-01  1.0000000000D+00
****
$end
--------------------------------------------------------------
 ----------------------------------------------------------------
             Standard Nuclear Orientation (Angstroms)
    I     Atom           X                Y                Z
 ----------------------------------------------------------------
    1      S       0.7095500000    -0.2808800000    -1.5333300000
    2      C       0.4696700000    -0.2084300000     0.1314200000
    3      N       0.3618000000    -0.1253100000     1.3040400000
    4      GH     -1.4840500000    -2.4338300000    -1.1651400000
    5      GH     -1.0121100000    -3.3058300000    -1.4099100000
    6      GH     -0.8123400000    -1.7394400000    -1.4038700000
    7      GH     -2.2391500000     1.5097600000    -0.6372100000
    8      GH     -1.5256800000     2.1457600000    -0.5756400000
    9      GH     -1.9188100000     0.8217500000     0.0320300000
   10      GH     -3.4617700000    -2.3334400000    -3.0933300000
   11      GH     -2.7673300000    -2.5121700000    -2.4228200000
   12      GH     -4.1024100000    -2.9927500000    -2.7630200000
   13      GH      3.9845400000    -0.2681400000     0.4681400000
   14      GH      4.8605200000    -0.6380800000     0.3981900000
   15      GH      3.8680600000    -0.3193200000     1.4658300000
   16      GH     -0.2542800000     3.2136400000     0.0129600000
   17      GH     -0.5989800000     3.5516700000     0.8538000000
   18      GH      0.6481900000     2.9749000000     0.1576700000
   19      GH      3.7197500000    -1.7691700000    -3.5476700000
   20      GH      3.3151400000    -0.9410300000    -3.1451400000
   21      GH      4.0736000000    -1.3429600000    -4.3751500000
   22      GH     -3.5648400000    -0.3346600000     2.3116800000
   23      GH     -4.1172600000    -0.3774900000     3.0837500000
   24      GH     -3.8083200000     0.5116700000     1.8687800000
   25      GH      2.5693100000     0.4588900000     3.1042900000
   26      GH      2.6923400000     1.3784200000     3.2381200000
   27      GH      1.7468600000     0.2737200000     2.6150700000
   28      GH      0.6603700000     2.1558300000    -3.3633600000
   29      GH      0.7133400000     1.5413700000    -2.6540600000
   30      GH      1.3205300000     2.8282100000    -3.1167700000
   31      GH      4.0893700000     2.0240000000    -1.2987700000
   32      GH      3.6448400000     2.6034100000    -0.6181400000
   33      GH      3.7112000000     1.1745200000    -1.0736300000
   34      GH     -2.3331300000     1.5777000000    -3.5082300000
   35      GH     -2.3785600000     1.5054000000    -2.4883400000
   36      GH     -1.3475700000     1.6248600000    -3.6269300000
   37      GH     -4.9623000000    -0.7643000000    -0.5974700000
   38      GH     -4.5400200000    -0.7433800000     0.2773600000
   39      GH     -4.4109100000    -1.3730000000    -1.1706800000
   40      GH      1.5761700000    -3.2141300000    -3.9608000000
   41      GH      1.4736800000    -2.9116700000    -3.0555700000
   42      GH      2.4751600000    -2.8171500000    -4.0114000000
   43      GH     -0.9810700000    -2.3944500000     4.2895000000
   44      GH     -1.6633300000    -1.9917400000     4.8657300000
   45      GH     -1.0829700000    -2.1369700000     3.3796100000
   46      GH     -1.8983200000    -2.5847600000     1.6702500000
   47      GH     -2.3718600000    -1.7145400000     1.7112500000
   48      GH     -1.3928100000    -2.5490300000     0.8347100000
   49      GH      2.3182500000     2.7136800000     0.7021400000
   50      GH      2.6383400000     3.2698000000     1.3988800000
   51      GH      2.2239000000     1.8273400000     1.0517300000
   52      GH     -1.0614300000     3.6199400000     2.6296600000
   53      GH     -1.0886100000     2.8173700000     3.1818700000
   54      GH     -1.7922300000     4.1687300000     3.0502200000
   55      GH      2.3761500000     3.1049900000     4.0244000000
   56      GH      1.4939100000     3.1194400000     4.4981200000
   57      GH      2.9989000000     3.4027600000     4.7446400000
   58      GH     -1.7914800000     1.6701500000     4.5368700000
   59      GH     -2.1532700000     1.8932400000     5.4194500000
   60      GH     -1.9458300000     0.7188600000     4.4589700000
   61      GH     -0.5021100000    -4.7634200000    -1.7154700000
   62      GH     -0.3369100000    -5.3384100000    -0.9637300000
   63      GH      0.0303700000    -5.2633600000    -2.3854500000
 ----------------------------------------------------------------
 Nuclear Repulsion Energy =          69.70542897 hartrees
 There are       15 alpha and       15 beta electrons
 Requested basis set is non-standard
 There are 76 shells and 181 basis functions
 Total memory of 50000 MB is distributed as follows: 
   MEM_STATIC is set to 1024 MB
   QALLOC/CCMAN JOB total memory use is  48976 MB
 Warning: actual memory use might exceed 50000 MB

 Total QAlloc Memory Limit  50000 MB
 Mega-Array Size      1001 MB
 MEM_STATIC part      1024 MB
 A cutoff of  1.0D-11 yielded   2792 shell pairs
 There are     16483 function pairs
 Smallest overlap matrix eigenvalue = 4.47E-05

 Scale SEOQF with 1.000000e-01/1.000000e-02/1.000000e-02

 Standard Electronic Orientation quadrupole field applied
 Nucleus-field energy     =    -0.0000000002 hartrees
 Guess MOs from SCF MO coefficient file
 Reading MOs from coefficient file
 Reading MOs from coefficient file
 A restricted Hartree-Fock SCF calculation will be
 performed using Pulay DIIS extrapolation
 SCF converges when DIIS error is below 1.0E-08
 Using Q-Chem read-in guess as SCF_GUESS READ specified.

 using 20 threads for integral computing
 -------------------------------------------------------
 OpenMP Integral computing Module                
 Release: version 1.0, May 2013, Q-Chem Inc. Pittsburgh 
 -------------------------------------------------------
 Using embedding potential from FDE-Man
 Integrated total embedding potential: -1.5868165672
 ---------------------------------------
  Cycle       Energy         DIIS Error
 ---------------------------------------
    1    -489.7400357224      1.30E-06
 Using embedding potential from FDE-Man
 Integrated total embedding potential: -1.5868179471
    2    -489.7400329772      8.42E-07
 Using embedding potential from FDE-Man
 Integrated total embedding potential: -1.5868184845
    3    -489.7400319069      4.31E-07
 Using embedding potential from FDE-Man
 Integrated total embedding potential: -1.5868195483
    4    -489.7400297817      9.91E-08
 Using embedding potential from FDE-Man
 Integrated total embedding potential: -1.5868197896
    5    -489.7400292993      4.74E-08
 Using embedding potential from FDE-Man
 Integrated total embedding potential: -1.5868198377
    6    -489.7400292034      2.26E-08
 Using embedding potential from FDE-Man
 Integrated total embedding potential: -1.5868198374
    7    -489.7400292039      8.36E-09 Convergence criterion met
 ---------------------------------------
 SCF time:  CPU 8.08 s  wall 1.72 s
 SCF   energy in the final basis set = -489.74002920
 Total energy in the final basis set = -489.74002920
Exporting Density Matrix to file 'Densmat_SCF.txt'.
Export successful
================================================================================
|                                                                              |
|                                 A D C  M A N                                 |
|                                                                              |
 ------------------------------------------------------------------------------ 
|                                                                              |
| Components:                                                                  |
|                                                                              |
| - libvmm - 1.3-trunk                                                         |
|   Authors:                                                                   |
|   Evgeny Epifanovsky, Ilya Kaliman                                           |
|                                                                              |
| - libtensor - 2.5-trunk                                                      |
|   Authors:                                                                   |
|   Evgeny Epifanovsky, Michael Wormit, Dmitry Zuev, Sam Manzer,               |
|   Ilya Kaliman                                                               |
|                                                                              |
| - libwfa - 1.1-trunk                                                         |
|   Authors:                                                                   |
|   Felix Plasser, Stefanie Mewes (Baeppler), Benjamin Thomitzni,              |
|   Michael Wormit, Feng Chen, Anna I. Krylov, Pavel Pokhilko                  |
|                                                                              |
| - libadc - 1.1-trunk                                                         |
|   Authors:                                                                   |
|   Michael Wormit, Adrian L. Dempwolff, Philipp H. P. Harbach,                |
|   Caroline Krauter, Dirk Rehn, Matthias Schneider, Jan Wenzel                |
|                                                                              |
| - adcman - 2.6-trunk                                                         |
|   Authors:                                                                   |
|   Michael Wormit, Adrian L. Dempwolff, Philipp H. P. Harbach,                |
|   Caroline Krauter, Daniel Lefrancois, Jan-Michael Mewes, Dirk Rehn,         |
|   Matthias Schneider, Jan Wenzel, Andreas Dreuw                              |
|                                                                              |
| Authors of earlier versions of ADCMAN:                                       |
| Andreas Dreuw, Jan Hendrik Starcke, Dirk Rehn, Michael Wormit                |
|                                                                              |
================================================================================

 Created directory /srv/beegfs/scratch/users/f/fum/qchem2014058/plots
  Import QC data ...  CPU 0.00 s  wall 0.01 s

 Alpha MOs, Restricted
 -- Occupied --                  
-91.854 -15.491 -11.224  -8.843  -6.531  -6.527  -6.527  -1.108
  1 A     2 A     3 A     4 A     5 A     6 A     7 A     8 A                  
 -0.879  -0.510  -0.428  -0.390  -0.385  -0.234  -0.223
  9 A    10 A    11 A    12 A    13 A    14 A    15 A                          
 -- Virtual --                   
  0.080   0.111   0.137   0.142   0.145   0.153   0.165   0.178
 16 A    17 A    18 A    19 A    20 A    21 A    22 A    23 A                  
  0.181   0.192   0.201   0.207   0.210   0.217   0.221   0.227
 24 A    25 A    26 A    27 A    28 A    29 A    30 A    31 A                  
  0.232   0.240   0.243   0.245   0.256   0.262   0.266   0.269
 32 A    33 A    34 A    35 A    36 A    37 A    38 A    39 A                  
  0.278   0.280   0.284   0.291   0.294   0.297   0.298   0.305
 40 A    41 A    42 A    43 A    44 A    45 A    46 A    47 A                  
  0.308   0.311   0.324   0.327   0.327   0.337   0.339   0.342
 48 A    49 A    50 A    51 A    52 A    53 A    54 A    55 A                  
  0.346   0.349   0.354   0.359   0.364   0.368   0.372   0.378
 56 A    57 A    58 A    59 A    60 A    61 A    62 A    63 A                  
  0.379   0.384   0.388   0.394   0.399   0.399   0.407   0.412
 64 A    65 A    66 A    67 A    68 A    69 A    70 A    71 A                  
  0.414   0.419   0.428   0.437   0.440   0.442   0.446   0.452
 72 A    73 A    74 A    75 A    76 A    77 A    78 A    79 A                  
  0.454   0.458   0.463   0.472   0.474   0.476   0.484   0.488
 80 A    81 A    82 A    83 A    84 A    85 A    86 A    87 A                  
  0.490   0.495   0.497   0.501   0.508   0.518   0.518   0.520
 88 A    89 A    90 A    91 A    92 A    93 A    94 A    95 A                  
  0.533   0.536   0.539   0.546   0.549   0.557   0.562   0.571
 96 A    97 A    98 A    99 A   100 A   101 A   102 A   103 A                  
  0.573   0.575   0.581   0.589   0.595   0.599   0.605   0.612
104 A   105 A   106 A   107 A   108 A   109 A   110 A   111 A                  
  0.616   0.622   0.623   0.635   0.640   0.650   0.653   0.658
112 A   113 A   114 A   115 A   116 A   117 A   118 A   119 A                  
  0.663   0.666   0.671   0.678   0.682   0.690   0.695   0.701
120 A   121 A   122 A   123 A   124 A   125 A   126 A   127 A                  
  0.710   0.715   0.728   0.729   0.735   0.740   0.742   0.748
128 A   129 A   130 A   131 A   132 A   133 A   134 A   135 A                  
  0.762   0.764   0.775   0.787   0.800   0.808   0.820   0.824
136 A   137 A   138 A   139 A   140 A   141 A   142 A   143 A                  
  0.833   0.839   0.853   0.860   0.892   0.907   0.920   0.959
144 A   145 A   146 A   147 A   148 A   149 A   150 A   151 A                  
  0.988   1.031   1.087   1.109   1.155   1.182   1.213   1.288
152 A   153 A   154 A   155 A   156 A   157 A   158 A   159 A                  
  1.305   1.315   1.339   1.424   1.471   1.511   1.543   1.665
160 A   161 A   162 A   163 A   164 A   165 A   166 A   167 A                  
  1.806   1.971   1.989   2.042   2.054   2.242   2.402   3.008
168 A   169 A   170 A   171 A   172 A   173 A   174 A   175 A                  
  3.079   3.085   3.225   3.440   4.002   4.340
176 A   177 A   178 A   179 A   180 A   181 A                                  

 Beta MOs, Restricted
 -- Occupied --                  
-91.854 -15.491 -11.224  -8.843  -6.531  -6.527  -6.527  -1.108
  1 A     2 A     3 A     4 A     5 A     6 A     7 A     8 A                  
 -0.879  -0.510  -0.428  -0.390  -0.385  -0.234  -0.223
  9 A    10 A    11 A    12 A    13 A    14 A    15 A                          
 -- Virtual --                   
  0.080   0.111   0.137   0.142   0.145   0.153   0.165   0.178
 16 A    17 A    18 A    19 A    20 A    21 A    22 A    23 A                  
  0.181   0.192   0.201   0.207   0.210   0.217   0.221   0.227
 24 A    25 A    26 A    27 A    28 A    29 A    30 A    31 A                  
  0.232   0.240   0.243   0.245   0.256   0.262   0.266   0.269
 32 A    33 A    34 A    35 A    36 A    37 A    38 A    39 A                  
  0.278   0.280   0.284   0.291   0.294   0.297   0.298   0.305
 40 A    41 A    42 A    43 A    44 A    45 A    46 A    47 A                  
  0.308   0.311   0.324   0.327   0.327   0.337   0.339   0.342
 48 A    49 A    50 A    51 A    52 A    53 A    54 A    55 A                  
  0.346   0.349   0.354   0.359   0.364   0.368   0.372   0.378
 56 A    57 A    58 A    59 A    60 A    61 A    62 A    63 A                  
  0.379   0.384   0.388   0.394   0.399   0.399   0.407   0.412
 64 A    65 A    66 A    67 A    68 A    69 A    70 A    71 A                  
  0.414   0.419   0.428   0.437   0.440   0.442   0.446   0.452
 72 A    73 A    74 A    75 A    76 A    77 A    78 A    79 A                  
  0.454   0.458   0.463   0.472   0.474   0.476   0.484   0.488
 80 A    81 A    82 A    83 A    84 A    85 A    86 A    87 A                  
  0.490   0.495   0.497   0.501   0.508   0.518   0.518   0.520
 88 A    89 A    90 A    91 A    92 A    93 A    94 A    95 A                  
  0.533   0.536   0.539   0.546   0.549   0.557   0.562   0.571
 96 A    97 A    98 A    99 A   100 A   101 A   102 A   103 A                  
  0.573   0.575   0.581   0.589   0.595   0.599   0.605   0.612
104 A   105 A   106 A   107 A   108 A   109 A   110 A   111 A                  
  0.616   0.622   0.623   0.635   0.640   0.650   0.653   0.658
112 A   113 A   114 A   115 A   116 A   117 A   118 A   119 A                  
  0.663   0.666   0.671   0.678   0.682   0.690   0.695   0.701
120 A   121 A   122 A   123 A   124 A   125 A   126 A   127 A                  
  0.710   0.715   0.728   0.729   0.735   0.740   0.742   0.748
128 A   129 A   130 A   131 A   132 A   133 A   134 A   135 A                  
  0.762   0.764   0.775   0.787   0.800   0.808   0.820   0.824
136 A   137 A   138 A   139 A   140 A   141 A   142 A   143 A                  
  0.833   0.839   0.853   0.860   0.892   0.907   0.920   0.959
144 A   145 A   146 A   147 A   148 A   149 A   150 A   151 A                  
  0.988   1.031   1.087   1.109   1.155   1.182   1.213   1.288
152 A   153 A   154 A   155 A   156 A   157 A   158 A   159 A                  
  1.305   1.315   1.339   1.424   1.471   1.511   1.543   1.665
160 A   161 A   162 A   163 A   164 A   165 A   166 A   167 A                  
  1.806   1.971   1.989   2.042   2.054   2.242   2.402   3.008
168 A   169 A   170 A   171 A   172 A   173 A   174 A   175 A                  
  3.079   3.085   3.225   3.440   4.002   4.340
176 A   177 A   178 A   179 A   180 A   181 A                                  
  Import AO data ...  CPU 0.03 s  wall 0.11 s
  Using point group: C1
  Irreducible representations in point group: A
  Molecular orbitals: 
  Occupied MOs:
  Block   0:   1 (  A) A   2 (  A) A   3 (  A) A   4 (  A) A   5 (  A) A
                  -91.85      -15.49      -11.22      -8.843      -6.531
               6 (  A) A   7 (  A) A   8 (  A) A   9 (  A) A  10 (  A) A
                  -6.527      -6.527      -1.108     -0.8789     -0.5105
              11 (  A) A  12 (  A) A  13 (  A) A  14 (  A) A  15 (  A) A
                 -0.4284     -0.3901     -0.3849     -0.2338     -0.2229
  Block   1:   1 (  A) B   2 (  A) B   3 (  A) B   4 (  A) B   5 (  A) B
                  -91.85      -15.49      -11.22      -8.843      -6.531
               6 (  A) B   7 (  A) B   8 (  A) B   9 (  A) B  10 (  A) B
                  -6.527      -6.527      -1.108     -0.8789     -0.5105
              11 (  A) B  12 (  A) B  13 (  A) B  14 (  A) B  15 (  A) B
                 -0.4284     -0.3901     -0.3849     -0.2338     -0.2229
  Virtual MOs:
  Block   0:  16 (  A) A  17 (  A) A  18 (  A) A  19 (  A) A  20 (  A) A
                 0.07958      0.1106      0.1365      0.1416       0.145
              21 (  A) A  22 (  A) A  23 (  A) A  24 (  A) A  25 (  A) A
                  0.1535       0.165      0.1784       0.181      0.1916
              26 (  A) A  27 (  A) A  28 (  A) A  29 (  A) A  30 (  A) A
                  0.2014      0.2068      0.2099       0.217      0.2214
              31 (  A) A
                  0.2266
  Block   1:  32 (  A) A  33 (  A) A  34 (  A) A  35 (  A) A  36 (  A) A
                  0.2318        0.24      0.2428      0.2454      0.2558
              37 (  A) A  38 (  A) A  39 (  A) A  40 (  A) A  41 (  A) A
                   0.262       0.266      0.2694      0.2778      0.2799
              42 (  A) A  43 (  A) A  44 (  A) A  45 (  A) A  46 (  A) A
                  0.2844      0.2911      0.2944      0.2973      0.2985
              47 (  A) A
                  0.3052
  Block   2:  48 (  A) A  49 (  A) A  50 (  A) A  51 (  A) A  52 (  A) A
                  0.3075      0.3107      0.3237       0.327      0.3273
              53 (  A) A  54 (  A) A  55 (  A) A  56 (  A) A  57 (  A) A
                   0.337      0.3389      0.3423       0.346      0.3486
              58 (  A) A  59 (  A) A  60 (  A) A  61 (  A) A
                  0.3542      0.3589      0.3636      0.3676
  Block   3:  62 (  A) A  63 (  A) A  64 (  A) A  65 (  A) A  66 (  A) A
                  0.3717      0.3782      0.3794       0.384      0.3883
              67 (  A) A  68 (  A) A  69 (  A) A  70 (  A) A  71 (  A) A
                  0.3938      0.3986      0.3994      0.4074      0.4125
              72 (  A) A  73 (  A) A  74 (  A) A  75 (  A) A  76 (  A) A
                  0.4144      0.4187      0.4275      0.4367      0.4397
              77 (  A) A
                  0.4419
  Block   4:  78 (  A) A  79 (  A) A  80 (  A) A  81 (  A) A  82 (  A) A
                  0.4463      0.4519      0.4543      0.4581      0.4626
              83 (  A) A  84 (  A) A  85 (  A) A  86 (  A) A  87 (  A) A
                  0.4717      0.4741       0.476      0.4843       0.488
              88 (  A) A  89 (  A) A  90 (  A) A  91 (  A) A
                  0.4903      0.4949      0.4971      0.5011
  Block   5:  92 (  A) A  93 (  A) A  94 (  A) A  95 (  A) A  96 (  A) A
                  0.5081      0.5179      0.5183      0.5202       0.533
              97 (  A) A  98 (  A) A  99 (  A) A 100 (  A) A 101 (  A) A
                  0.5359      0.5387      0.5465      0.5489      0.5569
             102 (  A) A 103 (  A) A 104 (  A) A 105 (  A) A 106 (  A) A
                  0.5622      0.5705      0.5727      0.5752       0.581
             107 (  A) A
                  0.5886
  Block   6: 108 (  A) A 109 (  A) A 110 (  A) A 111 (  A) A 112 (  A) A
                  0.5948      0.5994       0.605      0.6119      0.6155
             113 (  A) A 114 (  A) A 115 (  A) A 116 (  A) A 117 (  A) A
                  0.6217      0.6233      0.6347      0.6401      0.6501
             118 (  A) A 119 (  A) A 120 (  A) A 121 (  A) A
                  0.6527      0.6579      0.6633      0.6657
  Block   7: 122 (  A) A 123 (  A) A 124 (  A) A 125 (  A) A 126 (  A) A
                  0.6708      0.6781      0.6818      0.6901      0.6946
             127 (  A) A 128 (  A) A 129 (  A) A 130 (  A) A 131 (  A) A
                  0.7011      0.7097      0.7146      0.7279      0.7288
             132 (  A) A 133 (  A) A 134 (  A) A 135 (  A) A 136 (  A) A
                  0.7351        0.74      0.7424      0.7476      0.7616
             137 (  A) A
                  0.7635
  Block   8: 138 (  A) A 139 (  A) A 140 (  A) A 141 (  A) A 142 (  A) A
                  0.7752      0.7866      0.7995      0.8077      0.8195
             143 (  A) A 144 (  A) A 145 (  A) A 146 (  A) A 147 (  A) A
                  0.8237      0.8329      0.8391      0.8531      0.8602
             148 (  A) A 149 (  A) A 150 (  A) A 151 (  A) A
                   0.892      0.9074        0.92      0.9587
  Block   9: 152 (  A) A 153 (  A) A 154 (  A) A 155 (  A) A 156 (  A) A
                   0.988       1.031       1.087       1.109       1.155
             157 (  A) A 158 (  A) A 159 (  A) A 160 (  A) A 161 (  A) A
                   1.182       1.213       1.288       1.305       1.315
             162 (  A) A 163 (  A) A 164 (  A) A 165 (  A) A 166 (  A) A
                   1.339       1.424       1.471       1.511       1.543
             167 (  A) A
                   1.665
  Block  10: 168 (  A) A 169 (  A) A 170 (  A) A 171 (  A) A 172 (  A) A
                   1.806       1.971       1.989       2.042       2.054
             173 (  A) A 174 (  A) A 175 (  A) A 176 (  A) A 177 (  A) A
                   2.242       2.402       3.008       3.079       3.085
             178 (  A) A 179 (  A) A 180 (  A) A 181 (  A) A
                   3.225        3.44       4.002        4.34
  Block  11:  16 (  A) B  17 (  A) B  18 (  A) B  19 (  A) B  20 (  A) B
                 0.07958      0.1106      0.1365      0.1416       0.145
              21 (  A) B  22 (  A) B  23 (  A) B  24 (  A) B  25 (  A) B
                  0.1535       0.165      0.1784       0.181      0.1916
              26 (  A) B  27 (  A) B  28 (  A) B  29 (  A) B  30 (  A) B
                  0.2014      0.2068      0.2099       0.217      0.2214
              31 (  A) B
                  0.2266
  Block  12:  32 (  A) B  33 (  A) B  34 (  A) B  35 (  A) B  36 (  A) B
                  0.2318        0.24      0.2428      0.2454      0.2558
              37 (  A) B  38 (  A) B  39 (  A) B  40 (  A) B  41 (  A) B
                   0.262       0.266      0.2694      0.2778      0.2799
              42 (  A) B  43 (  A) B  44 (  A) B  45 (  A) B  46 (  A) B
                  0.2844      0.2911      0.2944      0.2973      0.2985
              47 (  A) B
                  0.3052
  Block  13:  48 (  A) B  49 (  A) B  50 (  A) B  51 (  A) B  52 (  A) B
                  0.3075      0.3107      0.3237       0.327      0.3273
              53 (  A) B  54 (  A) B  55 (  A) B  56 (  A) B  57 (  A) B
                   0.337      0.3389      0.3423       0.346      0.3486
              58 (  A) B  59 (  A) B  60 (  A) B  61 (  A) B
                  0.3542      0.3589      0.3636      0.3676
  Block  14:  62 (  A) B  63 (  A) B  64 (  A) B  65 (  A) B  66 (  A) B
                  0.3717      0.3782      0.3794       0.384      0.3883
              67 (  A) B  68 (  A) B  69 (  A) B  70 (  A) B  71 (  A) B
                  0.3938      0.3986      0.3994      0.4074      0.4125
              72 (  A) B  73 (  A) B  74 (  A) B  75 (  A) B  76 (  A) B
                  0.4144      0.4187      0.4275      0.4367      0.4397
              77 (  A) B
                  0.4419
  Block  15:  78 (  A) B  79 (  A) B  80 (  A) B  81 (  A) B  82 (  A) B
                  0.4463      0.4519      0.4543      0.4581      0.4626
              83 (  A) B  84 (  A) B  85 (  A) B  86 (  A) B  87 (  A) B
                  0.4717      0.4741       0.476      0.4843       0.488
              88 (  A) B  89 (  A) B  90 (  A) B  91 (  A) B
                  0.4903      0.4949      0.4971      0.5011
  Block  16:  92 (  A) B  93 (  A) B  94 (  A) B  95 (  A) B  96 (  A) B
                  0.5081      0.5179      0.5183      0.5202       0.533
              97 (  A) B  98 (  A) B  99 (  A) B 100 (  A) B 101 (  A) B
                  0.5359      0.5387      0.5465      0.5489      0.5569
             102 (  A) B 103 (  A) B 104 (  A) B 105 (  A) B 106 (  A) B
                  0.5622      0.5705      0.5727      0.5752       0.581
             107 (  A) B
                  0.5886
  Block  17: 108 (  A) B 109 (  A) B 110 (  A) B 111 (  A) B 112 (  A) B
                  0.5948      0.5994       0.605      0.6119      0.6155
             113 (  A) B 114 (  A) B 115 (  A) B 116 (  A) B 117 (  A) B
                  0.6217      0.6233      0.6347      0.6401      0.6501
             118 (  A) B 119 (  A) B 120 (  A) B 121 (  A) B
                  0.6527      0.6579      0.6633      0.6657
  Block  18: 122 (  A) B 123 (  A) B 124 (  A) B 125 (  A) B 126 (  A) B
                  0.6708      0.6781      0.6818      0.6901      0.6946
             127 (  A) B 128 (  A) B 129 (  A) B 130 (  A) B 131 (  A) B
                  0.7011      0.7097      0.7146      0.7279      0.7288
             132 (  A) B 133 (  A) B 134 (  A) B 135 (  A) B 136 (  A) B
                  0.7351        0.74      0.7424      0.7476      0.7616
             137 (  A) B
                  0.7635
  Block  19: 138 (  A) B 139 (  A) B 140 (  A) B 141 (  A) B 142 (  A) B
                  0.7752      0.7866      0.7995      0.8077      0.8195
             143 (  A) B 144 (  A) B 145 (  A) B 146 (  A) B 147 (  A) B
[...]
     15 (A) A               31 (A) A                 -0.0375
     15 (A) A               17 (A) A                  0.0358
     15 (A) A               35 (A) A                  0.0276
     15 (A) A               46 (A) A                 -0.0270
     15 (A) A               29 (A) A                 -0.0267
     15 (A) A               53 (A) A                  0.0241
     15 (A) A               69 (A) A                 -0.0233
     15 (A) A               36 (A) A                 -0.0210
     15 (A) A               50 (A) A                  0.0210
     15 (A) A               41 (A) A                 -0.0208
     15 (A) A               43 (A) A                 -0.0180
     15 (A) A               49 (A) A                  0.0177
     15 (A) A               47 (A) A                 -0.0170
     15 (A) A               68 (A) A                 -0.0159
     15 (A) A               40 (A) A                  0.0156
     15 (A) A               44 (A) A                 -0.0154
     15 (A) A               59 (A) A                  0.0151
     15 (A) A               58 (A) A                  0.0144
     15 (A) A               34 (A) A                  0.0134
     15 (A) A               64 (A) A                  0.0123
     15 (A) A               52 (A) A                 -0.0122
     15 (A) A               73 (A) A                  0.0118
     15 (A) A               48 (A) A                 -0.0117
     11 (A) A               16 (A) A                  0.0110
     15 (A) A               66 (A) A                 -0.0108
     15 (A) A               37 (A) A                  0.0107
     15 (A) A               78 (A) A                 -0.0103
    ---------------------------------------------------------

  Density matrix analysis:
  ------------------------
  NOs
    Occupation of frontier NOs:
       0.9740   1.0193
    Number of electrons: 30.000000
    Number of unpaired electrons: n_u =  2.60739, n_u,nl =  2.10899
    NO participation ratio (PR_NO):  3.504594
  
  
  Mulliken Population Analysis
   Atom      Charge (e)              h+              e-           Del q
  ---------------------------------------------------------------------
   1  S       -0.726406        1.076827       -0.885284        0.191542
   2  C       -1.080883       -0.080641       -1.452181       -1.532822
   3  N        0.888027        0.517047        1.003704        1.520750
   4 GH        0.071742       -0.015511        0.020387        0.004875
   5 GH        0.002267       -0.000537        0.002168        0.001631
   6 GH       -0.034587        0.010834       -0.001164        0.009670
   7 GH        0.081666       -0.007399        0.070524        0.063125
   8 GH       -0.013557        0.000684       -0.012987       -0.012304
   9 GH        0.010591        0.001305        0.010760        0.012065
  10 GH       -0.002616       -0.000388       -0.001963       -0.002351
  11 GH        0.000372        0.000226        0.000373        0.000599
  12 GH        0.000301       -0.000014        0.000311        0.000297
  13 GH        0.016463       -0.004062        0.011774        0.007713
  14 GH        0.001364        0.000024        0.001287        0.001311
  15 GH        0.001649        0.000240        0.001848        0.002089
  16 GH        0.110973        0.000554        0.103542        0.104095
  17 GH       -0.017254       -0.000125       -0.016910       -0.017035
  18 GH       -0.009707       -0.000268       -0.009094       -0.009362
  19 GH        0.004170       -0.004957        0.005052        0.000096
  20 GH        0.000468        0.002324        0.000146        0.002470
  21 GH        0.000653       -0.000092        0.000633        0.000542
  22 GH       -0.224219        0.000882       -0.225065       -0.224183
  23 GH        0.102928       -0.000368        0.103287        0.102919
  24 GH        0.017530        0.000032        0.017454        0.017486
  25 GH        0.052883       -0.006942        0.048596        0.041653
  26 GH        0.007490        0.000064        0.007033        0.007097
  27 GH       -0.014522        0.000722       -0.006199       -0.005477
  28 GH        0.035662       -0.014835        0.001926       -0.012909
  29 GH       -0.013212        0.005070        0.000455        0.005525
  30 GH       -0.000302       -0.000293       -0.000096       -0.000389
  31 GH        0.004291       -0.004514        0.004521        0.000007
  32 GH       -0.000984        0.000022       -0.000998       -0.000976
  33 GH       -0.000453        0.000972       -0.000501        0.000471
  34 GH        0.000028       -0.005760       -0.000746       -0.006506
  35 GH       -0.001302        0.000868       -0.001067       -0.000199
  36 GH        0.000172        0.001268        0.000332        0.001599
  37 GH       -0.008958        0.000017       -0.008900       -0.008883
  38 GH       -0.000745        0.000015       -0.000767       -0.000752
  39 GH        0.001502       -0.000015        0.001491        0.001476
  40 GH        0.008027       -0.003901        0.007430        0.003529
  41 GH       -0.000941        0.001553       -0.000734        0.000819
  42 GH       -0.000651        0.000049       -0.000658       -0.000609
  43 GH       -0.072785       -0.000510       -0.072180       -0.072690
  44 GH        0.023174       -0.000119        0.023266        0.023148
  45 GH        0.010070        0.000150        0.010276        0.010426
  46 GH        0.024861       -0.003021        0.018130        0.015110
  47 GH       -0.006908        0.000301       -0.006037       -0.005737
  48 GH        0.004736       -0.000136        0.006515        0.006379
  49 GH        0.018495       -0.000039        0.021717        0.021679
  50 GH        0.009016       -0.000014        0.008779        0.008765
  51 GH        0.003902        0.000100        0.005182        0.005282
  52 GH       -0.115059       -0.000260       -0.115137       -0.115396
  53 GH        0.002200        0.000130        0.002268        0.002398
  54 GH        0.033440       -0.000105        0.033534        0.033429
  55 GH       -0.050446        0.000364       -0.050237       -0.049873
  56 GH        0.011025        0.000006        0.010990        0.010995
  57 GH        0.015729       -0.000051        0.015783        0.015731
  58 GH       -0.426131        0.001920       -0.428590       -0.426670
  59 GH        0.156494       -0.000557        0.157038        0.156481
  60 GH        0.088108       -0.000190        0.088399        0.088209
  61 GH       -0.002734       -0.000208       -0.000901       -0.001109
  62 GH        0.001382       -0.000010        0.001339        0.001329
  63 GH        0.001511       -0.000012        0.001429        0.001417
  ---------------------------------------------------------------------
   Sum:       -1.000000        1.468716       -1.468716        0.000000
  
  Multipole moment analysis of the density matrix
    Molecular charge:                      -1.000000
    Number of electrons:                   30.000000
      Center of electronic charge [Ang]: [  0.503700,  -0.196548,  -0.354875]
    Total nuclear charge:                  29.000000
      Center of nuclear charge [Ang]:    [  0.556781,  -0.220728,  -0.487216]
    Dipole moment [D]:                     20.839909
      Cartesian components [D]:          [  7.648658,  -3.484245, -19.069868]
    RMS size of the density [Ang]:         1.747755
      Cartesian components [Ang]:        [  0.704836,   0.555481,   1.499765]
  
  Exciton analysis of the difference density matrix
    <r_h> [Ang]:                  [  0.593819,  -0.232262,  -0.619116]
    <r_e> [Ang]:                  [ -0.891400,   0.394311,   2.168177]
    |<r_e - r_h>| [Ang]:            3.219856
    Hole size [Ang]:                2.006650
      Cartesian components [Ang]: [  0.952445,   0.840694,   1.553296]
    Electron size [Ang]:            3.788847
      Cartesian components [Ang]: [  2.128504,   1.593350,   2.699272]

  Transition density matrix analysis:
  -----------------------------------
  
  CT numbers (Mulliken)
    omega =     0.9048
    <Phe> =    -0.0020
  
  Exciton analysis of the transition density matrix
    Trans. dipole moment [D]:             0.097765
      Cartesian components [D]:         [ -0.053565,   0.037141,  -0.072865]
    <r_h> [Ang]:                        [  0.649585,  -0.256293,  -0.981656]
    <r_e> [Ang]:                        [ -1.577085,   0.684015,   3.407001]
    |<r_e - r_h>| [Ang]:                  5.010244
    Hole size [Ang]:                      1.668070
      Cartesian components [Ang]:       [  0.868596,   0.656408,   1.263774]
    Electron size [Ang]:                  3.600920
      Cartesian components [Ang]:       [  2.217851,   1.787941,   2.202505]
    RMS electron-hole separation [Ang]:   6.384760
      Cartesian components [Ang]:       [  3.257306,   2.122863,   5.064442]
    Covariance(r_h, r_e) [Ang^2]:         0.043233
    Correlation coefficient:              0.007198
    Center-of-mass size [Ang]:            1.989695
      Cartesian components [Ang]:       [  1.193174,   0.953001,   1.275543]
  ----------------------------------------------------------------------------


--------------------------------------------------------------------------------
  Printing results ...  CPU 0.07 s  wall 0.21 s
  Printing results (es2es) ...  CPU 0.00 s  wall 0.00 s
  Time of ADC calculation:  CPU 1098.96 s  wall 74.25 s
--------------------------------------------------------------------------------
================================================================================

 --------------------------------------------------------------

                    Orbital Energies (a.u.)
 --------------------------------------------------------------

 Alpha MOs
 -- Occupied --
-91.8538 -15.4906 -11.2243  -8.8435  -6.5309  -6.5271  -6.5268  -1.1084
 -0.8789  -0.5105  -0.4284  -0.3901  -0.3849  -0.2338  -0.2229
 -- Virtual --
  0.0796   0.1106   0.1365   0.1416   0.1450   0.1535   0.1650   0.1784
  0.1810   0.1916   0.2014   0.2068   0.2099   0.2170   0.2214   0.2266
  0.2318   0.2400   0.2428   0.2454   0.2558   0.2620   0.2660   0.2694
  0.2778   0.2799   0.2844   0.2911   0.2944   0.2973   0.2985   0.3052
  0.3075   0.3107   0.3237   0.3270   0.3273   0.3370   0.3389   0.3423
  0.3460   0.3486   0.3542   0.3589   0.3636   0.3676   0.3717   0.3782
  0.3794   0.3840   0.3883   0.3938   0.3986   0.3994   0.4074   0.4125
  0.4144   0.4187   0.4275   0.4367   0.4397   0.4419   0.4463   0.4519
  0.4543   0.4581   0.4626   0.4717   0.4741   0.4760   0.4843   0.4880
  0.4903   0.4949   0.4971   0.5011   0.5081   0.5179   0.5183   0.5202
  0.5330   0.5359   0.5387   0.5465   0.5489   0.5569   0.5622   0.5705
  0.5727   0.5752   0.5810   0.5886   0.5948   0.5994   0.6050   0.6119
  0.6155   0.6217   0.6233   0.6347   0.6401   0.6501   0.6527   0.6579
  0.6633   0.6657   0.6708   0.6781   0.6818   0.6901   0.6946   0.7011
  0.7097   0.7146   0.7279   0.7288   0.7351   0.7400   0.7424   0.7476
  0.7616   0.7635   0.7752   0.7866   0.7995   0.8077   0.8195   0.8237
  0.8329   0.8391   0.8531   0.8602   0.8920   0.9074   0.9200   0.9587
  0.9880   1.0313   1.0868   1.1091   1.1545   1.1824   1.2131   1.2878
  1.3048   1.3152   1.3389   1.4239   1.4707   1.5109   1.5429   1.6653
  1.8061   1.9709   1.9890   2.0417   2.0544   2.2416   2.4024   3.0078
  3.0793   3.0851   3.2248   3.4401   4.0017   4.3403
 --------------------------------------------------------------

          Ground-State Mulliken Net Atomic Charges

     Atom                 Charge (a.u.)
  ----------------------------------------
      1 S                    -0.984863
      2 C                     0.594949
      3 N                    -0.696845
      4 GH                    0.061818
      5 GH                    0.000445
      6 GH                   -0.038573
      7 GH                    0.020551
      8 GH                   -0.001712
      9 GH                   -0.002866
     10 GH                   -0.000474
     11 GH                   -0.000165
     12 GH                    0.000002
     13 GH                    0.007432
     14 GH                    0.000075
     15 GH                   -0.000371
     16 GH                    0.004356
     17 GH                   -0.000025
     18 GH                   -0.000421
     19 GH                    0.003108
     20 GH                   -0.001743
     21 GH                    0.000116
     22 GH                   -0.000343
     23 GH                    0.000007
     24 GH                    0.000086
     25 GH                    0.004200
     26 GH                    0.000464
     27 GH                   -0.005019
     28 GH                    0.045388
     29 GH                   -0.015534
     30 GH                   -0.000010
     31 GH                    0.003330
     32 GH                   -0.000008
     33 GH                   -0.000942
     34 GH                    0.005864
     35 GH                   -0.001185
     36 GH                   -0.001401
     37 GH                   -0.000105
     38 GH                    0.000011
     39 GH                    0.000028
     40 GH                    0.003780
     41 GH                   -0.001600
     42 GH                   -0.000045
     43 GH                   -0.000146
     44 GH                    0.000030
     45 GH                   -0.000463
     46 GH                    0.010016
     47 GH                   -0.001331
     48 GH                   -0.002158
     49 GH                   -0.003525
     50 GH                    0.000251
     51 GH                   -0.002299
     52 GH                    0.000016
     53 GH                   -0.000130
     54 GH                    0.000004
     55 GH                   -0.000461
     56 GH                    0.000024
     57 GH                   -0.000002
     58 GH                    0.000228
     59 GH                    0.000005
     60 GH                   -0.000055
     61 GH                   -0.001925
     62 GH                    0.000062
     63 GH                    0.000102
  ----------------------------------------
  Sum of atomic charges =    -1.000000

 -----------------------------------------------------------------
                    Cartesian Multipole Moments
 -----------------------------------------------------------------
    Charge (ESU x 10^10)
                -4.8032
    Dipole Moment (Debye)
         X      -2.8302      Y       0.9120      Z       0.4486
       Tot       3.0072
    Quadrupole Moments (Debye-Ang)
        XX     -30.1614     XY       0.5674     YY     -28.6548
        XZ       1.8206     YZ      -1.3507     ZZ     -39.8645
    Octopole Moments (Debye-Ang^2)
       XXX     -51.4466    XXY       6.9258    XYY     -17.0441
       YYY      19.9407    XXZ      17.1464    XYZ      -0.9481
       YYZ      16.1945    XZZ     -22.2867    YZZ       8.3744
       ZZZ      34.1731
    Hexadecapole Moments (Debye-Ang^3)
      XXXX    -104.6151   XXXY      12.8035   XXYY     -25.8044
      XYYY      12.7605   YYYY     -50.4778   XXXZ      46.0735
      XXYZ      -7.0371   XYYZ      15.2323   YYYZ     -19.4449
      XXZZ     -77.5386   XYZZ       4.9218   YYZZ     -66.3895
      XZZZ      36.4818   YZZZ     -16.9716   ZZZZ    -324.4436
 -----------------------------------------------------------------
 Total job time:  82.18s(wall), 1113.63s(cpu) 
 Thu May  1 23:33:10 2025

======= MOLDEN-FORMATTED INPUT FILE FOLLOWS =======
[Molden Format]
[Atoms] (Angs)
  S      1   16      0.70955000     -0.28088000     -1.53333000
  C      2    6      0.46967000     -0.20843000      0.13142000
  N      3    7      0.36180000     -0.12531000      1.30404000
 GH      4    0     -1.48405000     -2.43383000     -1.16514000
 GH      5    0     -1.01211000     -3.30583000     -1.40991000
 GH      6    0     -0.81234000     -1.73944000     -1.40387000
 GH      7    0     -2.23915000      1.50976000     -0.63721000
 GH      8    0     -1.52568000      2.14576000     -0.57564000
 GH      9    0     -1.91881000      0.82175000      0.03203000
 GH     10    0     -3.46177000     -2.33344000     -3.09333000
 GH     11    0     -2.76733000     -2.51217000     -2.42282000
 GH     12    0     -4.10241000     -2.99275000     -2.76302000
 GH     13    0      3.98454000     -0.26814000      0.46814000
 GH     14    0      4.86052000     -0.63808000      0.39819000
 GH     15    0      3.86806000     -0.31932000      1.46583000
 GH     16    0     -0.25428000      3.21364000      0.01296000
 GH     17    0     -0.59898000      3.55167000      0.85380000
 GH     18    0      0.64819000      2.97490000      0.15767000
 GH     19    0      3.71975000     -1.76917000     -3.54767000
 GH     20    0      3.31514000     -0.94103000     -3.14514000
 GH     21    0      4.07360000     -1.34296000     -4.37515000
 GH     22    0     -3.56484000     -0.33466000      2.31168000
 GH     23    0     -4.11726000     -0.37749000      3.08375000
 GH     24    0     -3.80832000      0.51167000      1.86878000
 GH     25    0      2.56931000      0.45889000      3.10429000
 GH     26    0      2.69234000      1.37842000      3.23812000
 GH     27    0      1.74686000      0.27372000      2.61507000
 GH     28    0      0.66037000      2.15583000     -3.36336000
 GH     29    0      0.71334000      1.54137000     -2.65406000
 GH     30    0      1.32053000      2.82821000     -3.11677000
 GH     31    0      4.08937000      2.02400000     -1.29877000
 GH     32    0      3.64484000      2.60341000     -0.61814000
 GH     33    0      3.71120000      1.17452000     -1.07363000
 GH     34    0     -2.33313000      1.57770000     -3.50823000
 GH     35    0     -2.37856000      1.50540000     -2.48834000
 GH     36    0     -1.34757000      1.62486000     -3.62693000
 GH     37    0     -4.96230000     -0.76430000     -0.59747000
 GH     38    0     -4.54002000     -0.74338000      0.27736000
 GH     39    0     -4.41091000     -1.37300000     -1.17068000
 GH     40    0      1.57617000     -3.21413000     -3.96080000
 GH     41    0      1.47368000     -2.91167000     -3.05557000
 GH     42    0      2.47516000     -2.81715000     -4.01140000
 GH     43    0     -0.98107000     -2.39445000      4.28950000
 GH     44    0     -1.66333000     -1.99174000      4.86573000
 GH     45    0     -1.08297000     -2.13697000      3.37961000
 GH     46    0     -1.89832000     -2.58476000      1.67025000
 GH     47    0     -2.37186000     -1.71454000      1.71125000
 GH     48    0     -1.39281000     -2.54903000      0.83471000
 GH     49    0      2.31825000      2.71368000      0.70214000
 GH     50    0      2.63834000      3.26980000      1.39888000
 GH     51    0      2.22390000      1.82734000      1.05173000
 GH     52    0     -1.06143000      3.61994000      2.62966000
 GH     53    0     -1.08861000      2.81737000      3.18187000
 GH     54    0     -1.79223000      4.16873000      3.05022000
 GH     55    0      2.37615000      3.10499000      4.02440000
 GH     56    0      1.49391000      3.11944000      4.49812000
 GH     57    0      2.99890000      3.40276000      4.74464000
 GH     58    0     -1.79148000      1.67015000      4.53687000
 GH     59    0     -2.15327000      1.89324000      5.41945000
 GH     60    0     -1.94583000      0.71886000      4.45897000
 GH     61    0     -0.50211000     -4.76342000     -1.71547000
 GH     62    0     -0.33691000     -5.33841000     -0.96373000
 GH     63    0      0.03037000     -5.26336000     -2.38545000

======= END OF MOLDEN-FORMATTED INPUT FILE =======


        *************************************************************
        *                                                           *
        *  Thank you very much for using Q-Chem.  Have a nice day.  *
        *                                                           *
        *************************************************************


