[Molden Format]
[Atoms] (Angs)
  S      1   16      0.70955000     -0.28088000     -1.53333000
  C      2    6      0.46967000     -0.20843000      0.13142000
  N      3    7      0.36180000     -0.12531000      1.30404000
 GH      4    0     -1.48405000     -2.43383000     -1.16514000
 GH      5    0     -1.01211000     -3.30583000     -1.40991000
 GH      6    0     -0.81234000     -1.73944000     -1.40387000
 GH      7    0     -2.23915000      1.50976000     -0.63721000
 GH      8    0     -1.52568000      2.14576000     -0.57564000
 GH      9    0     -1.91881000      0.82175000      0.03203000
 GH     10    0     -3.46177000     -2.33344000     -3.09333000
 GH     11    0     -2.76733000     -2.51217000     -2.42282000
 GH     12    0     -4.10241000     -2.99275000     -2.76302000
 GH     13    0      3.98454000     -0.26814000      0.46814000
 GH     14    0      4.86052000     -0.63808000      0.39819000
 GH     15    0      3.86806000     -0.31932000      1.46583000
 GH     16    0     -0.25428000      3.21364000      0.01296000
 GH     17    0     -0.59898000      3.55167000      0.85380000
 GH     18    0      0.64819000      2.97490000      0.15767000
 GH     19    0      3.71975000     -1.76917000     -3.54767000
 GH     20    0      3.31514000     -0.94103000     -3.14514000
 GH     21    0      4.07360000     -1.34296000     -4.37515000
 GH     22    0     -3.56484000     -0.33466000      2.31168000
 GH     23    0     -4.11726000     -0.37749000      3.08375000
 GH     24    0     -3.80832000      0.51167000      1.86878000
 GH     25    0      2.56931000      0.45889000      3.10429000
 GH     26    0      2.69234000      1.37842000      3.23812000
 GH     27    0      1.74686000      0.27372000      2.61507000
 GH     28    0      0.66037000      2.15583000     -3.36336000
 GH     29    0      0.71334000      1.54137000     -2.65406000
 GH     30    0      1.32053000      2.82821000     -3.11677000
 GH     31    0      4.08937000      2.02400000     -1.29877000
 GH     32    0      3.64484000      2.60341000     -0.61814000
 GH     33    0      3.71120000      1.17452000     -1.07363000
 GH     34    0     -2.33313000      1.57770000     -3.50823000
 GH     35    0     -2.37856000      1.50540000     -2.48834000
 GH     36    0     -1.34757000      1.62486000     -3.62693000
 GH     37    0     -4.96230000     -0.76430000     -0.59747000
 GH     38    0     -4.54002000     -0.74338000      0.27736000
 GH     39    0     -4.41091000     -1.37300000     -1.17068000
 GH     40    0      1.57617000     -3.21413000     -3.96080000
 GH     41    0      1.47368000     -2.91167000     -3.05557000
 GH     42    0      2.47516000     -2.81715000     -4.01140000
 GH     43    0     -0.98107000     -2.39445000      4.28950000
 GH     44    0     -1.66333000     -1.99174000      4.86573000
 GH     45    0     -1.08297000     -2.13697000      3.37961000
 GH     46    0     -1.89832000     -2.58476000      1.67025000
 GH     47    0     -2.37186000     -1.71454000      1.71125000
 GH     48    0     -1.39281000     -2.54903000      0.83471000
 GH     49    0      2.31825000      2.71368000      0.70214000
 GH     50    0      2.63834000      3.26980000      1.39888000
 GH     51    0      2.22390000      1.82734000      1.05173000
 GH     52    0     -1.06143000      3.61994000      2.62966000
 GH     53    0     -1.08861000      2.81737000      3.18187000
 GH     54    0     -1.79223000      4.16873000      3.05022000
 GH     55    0      2.37615000      3.10499000      4.02440000
 GH     56    0      1.49391000      3.11944000      4.49812000
 GH     57    0      2.99890000      3.40276000      4.74464000
 GH     58    0     -1.79148000      1.67015000      4.53687000
 GH     59    0     -2.15327000      1.89324000      5.41945000
 GH     60    0     -1.94583000      0.71886000      4.45897000
 GH     61    0     -0.50211000     -4.76342000     -1.71547000
 GH     62    0     -0.33691000     -5.33841000     -0.96373000
 GH     63    0      0.03037000     -5.26336000     -2.38545000
[GTO]
1    0
S    6    1.000000
   2.19171000E+04    1.86924085E-03 
   3.30149000E+03    1.42303065E-02 
   7.54146000E+02    6.96962317E-02 
   2.12711000E+02    2.38487108E-01 
   6.79896000E+01    4.83307219E-01 
   2.30515000E+01    3.38074154E-01 
SP   6    1.000000
   4.23735000E+02   -2.37677050E-03   4.06100998E-03 
   1.00710000E+02   -3.16930067E-02   3.06812999E-02 
   3.21599000E+01   -1.13317024E-01   1.30451999E-01 
   1.18079000E+01    5.60900118E-02   3.27204999E-01 
   4.63110000E+00    5.92255124E-01   4.52850998E-01 
   1.87025000E+00    4.55006095E-01   2.56041999E-01 
SP   3    1.000000
   2.61584000E+00   -2.50373114E-01  -1.45104896E-02 
   9.22167000E-01    6.69567631E-02   3.10262777E-01 
   3.41287000E-01    1.05450627E+00   7.54482457E-01 
SP   1    1.000000
   1.17167000E-01    1.00000000E+00   1.00000000E+00 
SP   1    1.000000
   4.05000000E-02    1.00000000E+00   1.00000000E+00 
D    1    1.000000
   6.50000000E-01    1.00000000E+00 

2    0
S    6    1.000000
   3.04752488E+03    1.83473713E-03 
   4.57369518E+02    1.40373228E-02 
   1.03948685E+02    6.88426223E-02 
   2.92101553E+01    2.32184443E-01 
   9.28666296E+00    4.67941348E-01 
   3.16392696E+00    3.62311985E-01 
SP   3    1.000000
   7.86827235E+00   -1.19332420E-01   6.89990666E-02 
   1.88128854E+00   -1.60854152E-01   3.16423961E-01 
   5.44249258E-01    1.14345644E+00   7.44308291E-01 
SP   1    1.000000
   1.68714478E-01    1.00000000E+00   1.00000000E+00 
SP   1    1.000000
   4.38000000E-02    1.00000000E+00   1.00000000E+00 
D    1    1.000000
   8.00000000E-01    1.00000000E+00 

3    0
S    6    1.000000
   4.17351146E+03    1.83477216E-03 
   6.27457911E+02    1.39946270E-02 
   1.42902093E+02    6.85865518E-02 
   4.02343293E+01    2.32240873E-01 
   1.28202129E+01    4.69069948E-01 
   4.39043701E+00    3.60455199E-01 
SP   3    1.000000
   1.16263619E+01   -1.14961182E-01   6.75797439E-02 
   2.71627981E+00   -1.69117479E-01   3.23907296E-01 
   7.72218397E-01    1.14585195E+00   7.40895140E-01 
SP   1    1.000000
   2.12031497E-01    1.00000000E+00   1.00000000E+00 
SP   1    1.000000
   6.39000000E-02    1.00000000E+00   1.00000000E+00 
D    1    1.000000
   8.00000000E-01    1.00000000E+00 

4    0
SP   1    1.000000
   8.45000000E-02    1.00000000E+00   1.00000000E+00 

5    0
S    1    1.000000
   1.61277759E-01    1.00000000E+00 

6    0
S    1    1.000000
   1.61277759E-01    1.00000000E+00 

7    0
SP   1    1.000000
   8.45000000E-02    1.00000000E+00   1.00000000E+00 

8    0
S    1    1.000000
   1.61277759E-01    1.00000000E+00 

9    0
S    1    1.000000
   1.61277759E-01    1.00000000E+00 

10    0
SP   1    1.000000
   8.45000000E-02    1.00000000E+00   1.00000000E+00 

11    0
S    1    1.000000
   1.61277759E-01    1.00000000E+00 

12    0
S    1    1.000000
   1.61277759E-01    1.00000000E+00 

13    0
SP   1    1.000000
   8.45000000E-02    1.00000000E+00   1.00000000E+00 

14    0
S    1    1.000000
   1.61277759E-01    1.00000000E+00 

15    0
S    1    1.000000
   1.61277759E-01    1.00000000E+00 

16    0
SP   1    1.000000
   8.45000000E-02    1.00000000E+00   1.00000000E+00 

17    0
S    1    1.000000
   1.61277759E-01    1.00000000E+00 

18    0
S    1    1.000000
   1.61277759E-01    1.00000000E+00 

19    0
SP   1    1.000000
   8.45000000E-02    1.00000000E+00   1.00000000E+00 

20    0
S    1    1.000000
   1.61277759E-01    1.00000000E+00 

21    0
S    1    1.000000
   1.61277759E-01    1.00000000E+00 

22    0
SP   1    1.000000
   8.45000000E-02    1.00000000E+00   1.00000000E+00 

23    0
S    1    1.000000
   1.61277759E-01    1.00000000E+00 

24    0
S    1    1.000000
   1.61277759E-01    1.00000000E+00 

25    0
SP   1    1.000000
   8.45000000E-02    1.00000000E+00   1.00000000E+00 

26    0
S    1    1.000000
   1.61277759E-01    1.00000000E+00 

27    0
S    1    1.000000
   1.61277759E-01    1.00000000E+00 

28    0
SP   1    1.000000
   8.45000000E-02    1.00000000E+00   1.00000000E+00 

29    0
S    1    1.000000
   1.61277759E-01    1.00000000E+00 

30    0
S    1    1.000000
   1.61277759E-01    1.00000000E+00 

31    0
SP   1    1.000000
   8.45000000E-02    1.00000000E+00   1.00000000E+00 

32    0
S    1    1.000000
   1.61277759E-01    1.00000000E+00 

33    0
S    1    1.000000
   1.61277759E-01    1.00000000E+00 

34    0
SP   1    1.000000
   8.45000000E-02    1.00000000E+00   1.00000000E+00 

35    0
S    1    1.000000
   1.61277759E-01    1.00000000E+00 

36    0
S    1    1.000000
   1.61277759E-01    1.00000000E+00 

37    0
SP   1    1.000000
   8.45000000E-02    1.00000000E+00   1.00000000E+00 

38    0
S    1    1.000000
   1.61277759E-01    1.00000000E+00 

39    0
S    1    1.000000
   1.61277759E-01    1.00000000E+00 

40    0
SP   1    1.000000
   8.45000000E-02    1.00000000E+00   1.00000000E+00 

41    0
S    1    1.000000
   1.61277759E-01    1.00000000E+00 

42    0
S    1    1.000000
   1.61277759E-01    1.00000000E+00 

43    0
SP   1    1.000000
   8.45000000E-02    1.00000000E+00   1.00000000E+00 

44    0
S    1    1.000000
   1.61277759E-01    1.00000000E+00 

45    0
S    1    1.000000
   1.61277759E-01    1.00000000E+00 

46    0
SP   1    1.000000
   8.45000000E-02    1.00000000E+00   1.00000000E+00 

47    0
S    1    1.000000
   1.61277759E-01    1.00000000E+00 

48    0
S    1    1.000000
   1.61277759E-01    1.00000000E+00 

49    0
SP   1    1.000000
   8.45000000E-02    1.00000000E+00   1.00000000E+00 

50    0
S    1    1.000000
   1.61277759E-01    1.00000000E+00 

51    0
S    1    1.000000
   1.61277759E-01    1.00000000E+00 

52    0
SP   1    1.000000
   8.45000000E-02    1.00000000E+00   1.00000000E+00 

53    0
S    1    1.000000
   1.61277759E-01    1.00000000E+00 

54    0
S    1    1.000000
   1.61277759E-01    1.00000000E+00 

55    0
SP   1    1.000000
   8.45000000E-02    1.00000000E+00   1.00000000E+00 

56    0
S    1    1.000000
   1.61277759E-01    1.00000000E+00 

57    0
S    1    1.000000
   1.61277759E-01    1.00000000E+00 

58    0
SP   1    1.000000
   8.45000000E-02    1.00000000E+00   1.00000000E+00 

59    0
S    1    1.000000
   1.61277759E-01    1.00000000E+00 

60    0
S    1    1.000000
   1.61277759E-01    1.00000000E+00 

61    0
SP   1    1.000000
   8.45000000E-02    1.00000000E+00   1.00000000E+00 

62    0
S    1    1.000000
   1.61277759E-01    1.00000000E+00 

63    0
S    1    1.000000
   1.61277759E-01    1.00000000E+00 

[MO]
Sym=X
Ene= 1.999999
Spin=Alpha
Occup=1
     1    9.860208668823e-01
     2    4.956267337284e-02
     3    8.829885401116e-05
     4   -7.480811875924e-05
     5   -8.226521246215e-04
     6   -2.140421388682e-02
     7    4.033034826342e-06
     8   -1.843464509807e-05
     9    7.433555251753e-05
    10    3.747579011774e-03
    11   -5.153476017389e-05
    12    9.933205798867e-05
    13    1.574343896244e-04
    14   -2.105394492380e-03
    15    1.132269577414e-04
    16   -1.409383979283e-04
    17   -5.185955963070e-04
    18    7.433022307960e-03
    19    7.431919848151e-03
    20    7.539548909216e-03
    21    1.237787825312e-06
    22   -1.813805413394e-05
    23    4.971856607828e-06
    24    6.590542106439e-05
    25    1.821530361438e-04
    26    9.521752056079e-06
    27   -1.006690573668e-05
    28   -7.399476907562e-05
    29   -4.383874887592e-04
    30    1.330246222864e-05
    31    2.242980696780e-05
    32   -7.235930071786e-05
    33    6.432457978363e-04
    34    6.083190023771e-06
    35   -3.033586157877e-04
    36   -8.709900291908e-06
    37    1.417060897588e-05
    38    1.870315982944e-05
    39   -2.960738930085e-04
    40    2.942438374876e-06
    41    4.962933310939e-05
    42   -1.525872062474e-05
    43    7.686815024245e-06
    44    7.252172114424e-05
    45    6.026550761774e-06
    46   -6.517259471692e-06
    47   -9.436609547910e-05
    48    7.070181490842e-05
    49    2.901425134983e-06
    50   -2.014651539797e-05
    51   -7.811056344963e-05
    52    3.146346468163e-04
    53   -1.063608183805e-05
    54    1.243274299268e-04
    55   -1.355552453465e-04
    56    6.423438400865e-06
    57    7.609383591190e-06
    58    8.918601039628e-05
    59   -4.807006023781e-07
    60   -1.103195337920e-07
    61    1.129720980778e-05
    62    3.154846711465e-05
    63   -5.634337570333e-05
    64    6.022041915076e-05
    65   -2.602577713144e-05
    66    3.665635901637e-05
    67   -3.886195178686e-05
    68    7.413024363641e-05
    69   -7.615552480857e-06
    70   -2.093657897390e-05
    71   -1.520349291209e-05
    72    2.483958945601e-05
    73    2.638268631638e-05
    74    1.925318414215e-05
    75    3.283541237157e-05
    76    1.854085240586e-05
    77   -1.469856668916e-06
    78   -2.647437340701e-05
    79    1.455627947350e-05
    80    9.516049135366e-05
    81   -2.548005840442e-06
    82   -1.725739664526e-05
    83   -2.937228984993e-05
    84   -2.878063611973e-05
    85    3.125979743139e-06
    86    1.530623468683e-04
    87    1.727001099090e-05
    88   -5.765549349009e-05
    89   -4.863352075516e-05
    90   -8.358068794543e-06
    91   -7.981178660277e-06
    92    6.095058449471e-05
    93   -9.883822243298e-06
    94    2.447766080643e-05
    95    3.190696957712e-05
    96   -3.762142989689e-05
    97    5.450506053669e-06
    98    9.686237274316e-06
    99   -7.344251391783e-07
   100    8.246998187333e-06
   101   -1.206077496603e-05
   102    5.258796756175e-06
   103   -1.197475858842e-05
   104    2.070592911874e-05
   105    1.073677363242e-06
   106    9.850233673595e-06
   107   -7.714188475696e-06
   108   -1.856835450623e-05
   109    3.671603868330e-06
   110    1.780942282820e-04
   111    1.832280438725e-05
   112   -7.036364632218e-07
   113    5.805353101642e-05
   114   -6.456375492005e-05
   115   -1.222307420462e-05
   116    1.290814146772e-04
   117   -5.915510585592e-05
   118   -2.759384102743e-05
   119    1.305918243572e-06
   120   -3.156535574953e-05
   121   -2.444458159249e-05
   122    8.805371650824e-05
   123    4.690843939644e-05
   124   -1.779322322966e-05
   125    1.258921684685e-05
   126    1.541605917697e-05
   127   -2.239426511902e-05
   128    2.759508905288e-05
   129    1.389095912356e-05
   130   -7.742467415609e-06
   131   -9.172739967936e-06
   132   -8.980482015454e-06
   133   -2.271269288298e-05
   134    3.299423516803e-05
   135   -1.188041657749e-05
   136   -2.960349345629e-06
   137    1.904523396393e-05
   138   -3.238788062101e-05
   139    1.379635341969e-05
   140    1.329231398984e-05
   141   -7.783776157289e-06
   142    8.125118343356e-06
   143    2.133188206197e-06
   144   -1.185688927104e-05
   145    6.371873543258e-07
   146   -4.816387138924e-05
   147   -1.236811904041e-05
   148   -8.948588087277e-06
   149    7.555439817497e-06
   150    3.917019986492e-06
   151    4.518957662441e-05
   152    1.025653813677e-04
   153   -1.054822775197e-05
   154   -2.316409487282e-05
   155   -4.004116535391e-05
   156   -9.462387536908e-06
   157    1.206348434605e-05
   158    2.237954358767e-05
   159   -7.801534197819e-07
   160    8.650889899757e-06
   161   -1.929646547676e-05
   162    2.908875963476e-06
   163   -8.930870439501e-06
   164    1.551991154276e-05
   165    4.932774932958e-06
   166    1.585493772921e-06
   167   -3.877512584955e-06
   168    6.674548934973e-07
   169   -9.080842760883e-06
   170    2.090991464501e-06
   171   -2.446174332310e-06
   172    1.401446312781e-05
   173    9.476096181596e-06
   174   -1.130007484822e-05
   175    1.045849319358e-05
   176    9.526137185164e-05
   177    2.038529182196e-05
   178    1.440405967443e-05
   179    2.236998282924e-05
   180   -3.890290436163e-05
   181   -2.649602578636e-05
Sym=X
Ene= 1.999798
Spin=Alpha
Occup=1
     1   -2.046649239500e-04
     2    6.143616009751e-04
     3    3.859839414565e-04
     4    2.895793816133e-04
     5    2.426269790207e-04
     6   -1.185835156485e-04
     7    3.681866402608e-06
     8    2.523216376083e-05
     9   -1.727727209257e-04
    10   -3.851952885899e-03
    11    3.684131296415e-04
    12   -2.275974343464e-04
    13   -2.035841851591e-03
    14   -1.737031200207e-02
    15    7.656731495761e-04
    16   -1.000724730159e-03
    17   -4.514848704055e-03
    18    6.436555102091e-05
    19    5.309847672136e-05
    20    4.602806273330e-05
    21   -5.701857634044e-06
    22    4.793317667766e-06
    23    1.515510434936e-05
    24   -2.241586421883e-02
    25   -2.263186195630e-04
    26   -2.795802258534e-05
    27   -2.169716822464e-05
    28   -2.385643997855e-04
    29   -4.045007470513e-03
    30    7.513525497366e-04
    31   -7.089170547975e-04
    32   -7.021934662289e-03
    33    3.086925776349e-02
    34   -6.389101787549e-05
    35    2.398427431968e-03
    36   -4.516312911996e-03
    37   -1.162091817994e-03
    38   -1.167664036846e-03
    39   -1.188378951222e-03
    40   -6.441578824852e-06
    41   -8.212280225113e-05
    42    4.396089299856e-05
    43   -9.967312705569e-01
    44   -2.184611055617e-02
    45   -4.082774916035e-04
    46    2.986329136139e-04
    47    5.105286107188e-03
    48    1.822227836579e-02
    49    3.089507538316e-04
    50   -5.346604523871e-05
    51   -2.631305056006e-03
    52   -1.308340694273e-02
    53   -1.870860218954e-04
    54   -6.347819754880e-04
    55    5.316495446280e-03
    56    2.109387837263e-03
    57    2.105944354594e-03
    58    1.428600966664e-03
    59    9.309137605954e-06
    60    5.904877438685e-05
    61   -1.362433094065e-05
    62   -1.228039175655e-04
    63    1.148603550229e-04
    64   -3.029015202620e-04
    65   -3.063077913151e-04
    66   -1.782178803130e-04
    67   -1.623398144315e-05
    68   -1.481579272815e-03
    69   -4.320555652905e-04
    70    3.146391294361e-04
    71   -3.141881987358e-04
    72    1.025211323043e-04
    73    4.967335039737e-04
    74    5.827415396004e-05
    75    9.687418165529e-06
    76    4.000456401962e-05
    77    2.702934484429e-05
    78   -6.264531130762e-05
    79    8.254494377734e-06
    80   -3.416293054243e-04
    81   -3.802633746424e-05
    82    3.576964514448e-05
    83   -3.834137658350e-05
    84    9.645279531728e-05
    85    4.681036714628e-05
    86   -2.859724879198e-04
    87   -1.544532206437e-04
    88    1.668559592443e-04
    89    3.305774491228e-04
    90   -2.671239507794e-04
    91    5.935576833121e-05
    92    6.133446001298e-05
    93    4.853685447477e-06
    94    1.671651951680e-05
    95    7.327232514845e-05
    96    4.502731084654e-05
    97    2.987864885505e-06
    98   -2.063854319973e-04
    99   -5.148355234541e-05
   100   -1.948524036159e-05
   101    6.654222850153e-05
   102    1.217388684451e-05
   103    3.004034511565e-05
   104   -7.562375072423e-04
   105    3.063039270408e-04
   106    7.599292691072e-05
   107    4.497647651416e-05
   108    4.342546762985e-05
   109    4.784360290430e-04
   110    3.126793174634e-04
   111    7.241300702750e-05
   112    3.678277946787e-05
   113    4.680350365173e-05
   114   -3.984242037411e-05
   115   -5.681363909660e-05
   116    2.011607769558e-04
   117   -2.716803381598e-05
   118   -1.251670487606e-04
   119   -5.386512914477e-05
   120    1.115426871469e-04
   121   -2.191626265406e-04
   122    2.745644979339e-04
   123    1.519825009593e-04
   124   -6.929759546546e-05
   125    6.315651295038e-05
   126   -4.478957421691e-05
   127   -7.478200816187e-05
   128   -9.004172780878e-05
   129   -5.641054074902e-05
   130    1.693738484167e-05
   131    1.652135375180e-05
   132    2.546338184659e-05
   133    6.075319770658e-05
   134   -5.950469919609e-05
   135   -4.815714178246e-06
   136   -5.247600181308e-05
   137    2.128041868405e-05
   138    7.262020179007e-05
   139    4.152353462130e-05
   140   -5.064954854030e-04
   141   -1.982021305413e-05
   142   -2.096752935869e-04
   143    1.628739658016e-04
   144    1.460914412795e-04
   145    1.655435763367e-04
   146   -7.432243796337e-05
   147   -5.711387788677e-05
   148    9.770845150658e-05
   149    6.946833993627e-05
   150   -9.328060971340e-05
   151    1.913898254438e-04
   152   -1.272309081396e-03
   153    1.539573554514e-04
   154    4.783817360918e-04
   155    3.638163035946e-05
   156    3.235536417567e-05
   157    6.098724151550e-04
   158   -2.767854119859e-04
   159   -1.433048665959e-06
   160   -1.512276312523e-06
   161    9.399708927531e-05
   162   -1.136150335043e-05
   163    8.455467214430e-05
   164   -7.333895420825e-06
   165   -3.590074824475e-06
   166   -2.022039399527e-05
   167    3.666461129340e-05
   168   -2.592523941398e-05
   169   -4.779426286779e-06
   170   -2.277166231672e-04
   171   -8.585697952631e-05
   172    6.867120485705e-05
   173    9.943400206064e-05
   174    1.281247387885e-05
   175    5.733367831754e-05
   176   -1.648653857538e-04
   177   -7.597831981692e-06
   178   -3.178617355518e-05
   179   -3.332830628809e-05
   180    7.433625943504e-05
   181    3.719979910790e-05
Sym=X
Ene= 1.999718
Spin=Alpha
Occup=1
     1   -3.118657858007e-01
     2    1.020762728694e+00
     3    1.037143862132e-03
     4   -9.914372636609e-03
     5   -1.883597958188e-01
     6   -1.721309564980e-02
     7   -1.706618991017e-04
     8    1.990689422745e-04
     9   -1.872586089945e-05
    10   -3.288305835010e-02
    11    1.970282513972e-03
    12   -1.908822017076e-03
    13   -4.177361644198e-04
    14    3.428129733146e-02
    15   -3.400454538801e-03
    16    5.537623515759e-03
    17    9.894728697760e-03
    18    1.402850940308e-02
    19    1.391567756196e-02
    20    1.531946101977e-02
    21   -8.704620371435e-05
    22   -1.514956389063e-04
    23    7.706396128611e-05
    24   -2.069185638468e-03
    25    1.285457092762e-03
    26    1.434295130625e-04
    27   -2.602523580491e-05
    28   -4.886410948668e-04
    29    5.549353593539e-03
    30    3.867615746245e-04
    31   -2.280153358679e-04
    32   -7.459514707335e-04
    33   -1.420187767755e-02
    34   -3.740597259034e-03
    35    9.041955035323e-04
    36   -2.080557751414e-03
    37    2.716613800466e-04
    38    3.184921475781e-04
    39   -1.950550958076e-03
    40    2.103773755853e-05
    41    3.810913373182e-04
    42   -1.384290540920e-04
    43    7.728987008939e-04
    44    8.571550007681e-04
    45    2.408402227618e-05
    46    2.339115511971e-06
    47   -3.744775253689e-04
    48   -2.997801227032e-03
    49   -3.580588460688e-04
    50    2.015499021464e-05
    51    1.326553270206e-03
    52   -5.522627839012e-05
    53    1.789355250469e-03
    54   -2.694320038763e-04
    55    2.193866464480e-03
    56    2.682117955682e-04
    57    2.904085946300e-04
    58    6.341296209613e-04
    59    4.067282877990e-06
    60    1.417547753959e-05
    61    5.122958034021e-05
    62   -5.934214553443e-03
    63   -1.313760905064e-03
    64   -2.894937619686e-03
    65    7.935217359973e-04
    66    2.851913106056e-04
    67    3.299235406663e-03
    68   -2.509220259796e-03
    69   -4.873072282437e-04
    70    8.107598143639e-04
    71    9.552606215528e-04
    72   -1.587957836258e-05
    73   -9.617896705657e-04
    74   -9.060732881333e-04
    75   -4.280353107587e-04
    76   -1.893295150751e-05
    77   -4.320695769902e-04
    78    1.229345834077e-03
    79   -8.794658685100e-05
    80   -8.495444280947e-04
    81    2.463546448561e-04
    82    2.265536887788e-04
    83    5.128413349827e-04
    84    3.004234998052e-04
    85    4.675302333264e-05
    86   -3.698603295848e-03
    87   -2.841666217388e-04
    88    1.408660373057e-03
    89    2.253404386690e-04
    90    8.165012793163e-04
    91    5.641920908121e-04
    92   -1.428546070292e-04
    93    8.443385136487e-05
    94   -1.191167474600e-04
    95   -2.279779159816e-04
    96   -4.014891449623e-04
    97    1.237673742629e-04
    98   -4.887701700502e-05
    99   -2.243450476592e-05
   100   -1.191996877211e-04
   101    1.597204409542e-04
   102   -7.582044734737e-05
   103   -1.542508313216e-05
   104   -4.435622521923e-04
   105    9.884011041195e-05
   106   -4.466116548741e-04
   107   -2.288369026147e-05
   108    4.520521578286e-04
   109   -1.008797068659e-04
   110   -5.850538217473e-03
   111   -5.450303626888e-04
   112    8.707271435276e-04
   113   -2.278737497872e-03
   114    2.223639821734e-03
   115    8.096848077817e-04
   116   -1.853474665608e-03
   117    9.445572579032e-04
   118    1.868695883842e-04
   119   -1.346705233655e-04
   120    1.033710076189e-03
   121   -5.329431456519e-05
   122   -2.377848013805e-03
   123   -1.153385084723e-03
   124    6.231215521122e-04
   125   -5.607983589130e-04
   126    4.153754687641e-04
   127    6.119891519700e-04
   128   -8.878683282211e-05
   129   -4.183842555678e-06
   130    5.608802616119e-06
   131    5.972600537247e-05
   132   -9.897074073594e-05
   133    2.073984177123e-04
   134    1.805654532134e-04
   135   -5.786256004771e-06
   136    7.194524662701e-05
   137   -5.696266623699e-05
   138   -2.508928580832e-04
   139    5.603862767762e-05
   140   -2.873771166088e-04
   141    1.777472662067e-04
   142   -1.195146094022e-04
   143   -1.515920247699e-05
   144    2.309996451012e-04
   145    3.307651745027e-05
   146   -1.098660386659e-04
   147    1.894076170236e-04
   148    7.235904056116e-05
   149    2.996792142045e-04
   150    1.175753538234e-06
   151    1.288272126358e-04
   152   -8.670470913025e-04
   153    2.346967547154e-04
   154    6.691769646329e-04
   155    1.285694206688e-03
   156   -3.429434002021e-04
   157   -1.195512826703e-05
   158   -1.820958213689e-04
   159    1.995943559303e-04
   160   -4.080121118710e-04
   161    3.015017536063e-04
   162   -1.944922696123e-04
   163    3.275319681108e-04
   164   -1.530162820659e-04
   165   -8.705971799826e-06
   166   -1.134312084316e-04
   167    2.359405715880e-04
   168   -1.424440413890e-05
   169    2.887340633653e-05
   170   -1.112224862446e-04
   171   -1.516405407077e-05
   172   -1.457857222999e-04
   173   -4.014323391755e-05
   174    9.844839680120e-05
   175   -4.066828273192e-05
   176   -9.432197746499e-04
   177    1.251079855653e-04
   178   -1.025816334689e-04
   179   -7.278493387671e-04
   180    7.031093140986e-04
   181   -1.388766533013e-04
Sym=X
Ene= 1.999695
Spin=Alpha
Occup=1
     1   -5.296513425547e-03
     2    1.707769081536e-02
     3    7.297070724539e-01
     4   -6.693419096468e-01
     5    1.266250815117e-01
     6    2.264900270910e-05
     7    6.577528768404e-03
     8   -6.035209923748e-03
     9    1.057127695428e-03
    10    3.137287467442e-03
    11   -1.462139478111e-02
    12    1.360178483130e-02
    13   -1.896739829506e-03
    14   -1.887774193332e-02
    15    7.862102792777e-03
    16   -7.499190915536e-03
    17   -5.873676008785e-03
    18   -4.357985044294e-05
    19   -1.752877733792e-05
    20   -8.990293241195e-05
    21   -3.683466046343e-05
    22   -1.427894347526e-04
    23    6.904969893144e-05
    24    8.511075289229e-04
    25    8.503005469566e-05
    26   -2.413808798258e-03
    27    2.191757711816e-03
    28   -4.379391740751e-04
    29   -8.514936291801e-04
    30   -1.454952517250e-03
    31    5.822852440262e-04
    32    8.148811349922e-04
    33    1.384759773979e-02
    34    8.792970729427e-04
    35    3.769559838898e-03
    36   -6.909289652292e-03
    37   -1.103386995349e-04
    38   -1.068533106876e-05
    39    2.629581675429e-04
    40    9.289416249674e-05
    41    6.563974972499e-04
    42   -6.229175583674e-04
    43    1.305827293898e-04
    44    8.863578222668e-05
    45    6.679832986183e-04
    46   -6.454107493122e-04
    47    1.192110159550e-04
    48   -1.160464573028e-03
    49    9.976550326450e-04
    50   -5.763645192023e-04
    51    1.950377250077e-04
    52    3.644473947575e-03
    53    6.036706348207e-06
    54   -1.421738251166e-03
    55    2.937343814930e-04
    56    3.489860225954e-05
    57    2.481848483112e-05
    58    1.118406710051e-04
    59    1.820083834019e-05
    60    1.515790529695e-04
    61   -1.561753499892e-04
    62    2.138755827204e-03
    63    5.951897327702e-04
    64    1.204376523177e-03
    65    2.233862877178e-05
    66    7.121815822689e-05
    67   -9.698138627918e-04
    68   -9.663092315951e-04
    69   -1.225950458215e-03
    70   -3.445399167212e-04
    71   -3.718163567941e-04
    72    1.257956141828e-03
    73    1.038908165196e-03
    74    8.457091218521e-04
    75    3.933268997143e-04
    76    2.122210176626e-04
    77    3.421818920162e-04
    78   -5.625138354582e-04
    79   -1.186384809364e-05
    80   -1.066175142781e-03
    81   -4.366575412440e-04
    82    6.067068131180e-04
    83    4.951465050213e-04
    84    6.982176277381e-04
    85   -1.539537617704e-04
    86    5.577766027004e-04
    87   -4.807809110230e-04
    88   -1.795658240831e-04
    89   -7.211700135646e-04
    90   -2.555965412701e-05
    91    3.153999276870e-04
    92   -2.418189545115e-03
    93    4.893622362734e-04
    94   -6.983784501846e-04
    95   -4.740147743274e-04
    96    7.255273738384e-04
    97    3.393214889770e-04
    98    3.535321634696e-04
    99    1.243575826905e-04
   100    6.031565471698e-05
   101   -1.258098652780e-04
   102    2.001113084587e-05
   103   -1.641012314930e-04
   104   -1.481895411800e-04
   105   -6.348709683509e-05
   106   -2.488915494991e-04
   107    1.259936547763e-04
   108    2.974356365750e-04
   109   -1.388277640900e-04
   110    2.230742154229e-03
   111   -2.293335133932e-04
   112    1.206596585325e-04
   113    7.102012673177e-04
   114   -1.220624254456e-03
   115   -9.092347110655e-07
   116    1.745960536228e-04
   117   -1.672158666467e-04
   118    1.892445166758e-04
   119    1.937612783699e-04
   120   -8.998404051376e-05
   121   -1.717317567085e-04
   122    1.403148262924e-03