[Molden Format]
[Atoms] (Angs)
  S      1   16      0.70955000     -0.28088000     -1.53333000
  C      2    6      0.46967000     -0.20843000      0.13142000
  N      3    7      0.36180000     -0.12531000      1.30404000
 GH      4    0     -1.48405000     -2.43383000     -1.16514000
 GH      5    0     -1.01211000     -3.30583000     -1.40991000
 GH      6    0     -0.81234000     -1.73944000     -1.40387000
 GH      7    0     -2.23915000      1.50976000     -0.63721000
 GH      8    0     -1.52568000      2.14576000     -0.57564000
 GH      9    0     -1.91881000      0.82175000      0.03203000
 GH     10    0     -3.46177000     -2.33344000     -3.09333000
 GH     11    0     -2.76733000     -2.51217000     -2.42282000
 GH     12    0     -4.10241000     -2.99275000     -2.76302000
 GH     13    0      3.98454000     -0.26814000      0.46814000
 GH     14    0      4.86052000     -0.63808000      0.39819000
 GH     15    0      3.86806000     -0.31932000      1.46583000
 GH     16    0     -0.25428000      3.21364000      0.01296000
 GH     17    0     -0.59898000      3.55167000      0.85380000
 GH     18    0      0.64819000      2.97490000      0.15767000
 GH     19    0      3.71975000     -1.76917000     -3.54767000
 GH     20    0      3.31514000     -0.94103000     -3.14514000
 GH     21    0      4.07360000     -1.34296000     -4.37515000
 GH     22    0     -3.56484000     -0.33466000      2.31168000
 GH     23    0     -4.11726000     -0.37749000      3.08375000
 GH     24    0     -3.80832000      0.51167000      1.86878000
 GH     25    0      2.56931000      0.45889000      3.10429000
 GH     26    0      2.69234000      1.37842000      3.23812000
 GH     27    0      1.74686000      0.27372000      2.61507000
 GH     28    0      0.66037000      2.15583000     -3.36336000
 GH     29    0      0.71334000      1.54137000     -2.65406000
 GH     30    0      1.32053000      2.82821000     -3.11677000
 GH     31    0      4.08937000      2.02400000     -1.29877000
 GH     32    0      3.64484000      2.60341000     -0.61814000
 GH     33    0      3.71120000      1.17452000     -1.07363000
 GH     34    0     -2.33313000      1.57770000     -3.50823000
 GH     35    0     -2.37856000      1.50540000     -2.48834000
 GH     36    0     -1.34757000      1.62486000     -3.62693000
 GH     37    0     -4.96230000     -0.76430000     -0.59747000
 GH     38    0     -4.54002000     -0.74338000      0.27736000
 GH     39    0     -4.41091000     -1.37300000     -1.17068000
 GH     40    0      1.57617000     -3.21413000     -3.96080000
 GH     41    0      1.47368000     -2.91167000     -3.05557000
 GH     42    0      2.47516000     -2.81715000     -4.01140000
 GH     43    0     -0.98107000     -2.39445000      4.28950000
 GH     44    0     -1.66333000     -1.99174000      4.86573000
 GH     45    0     -1.08297000     -2.13697000      3.37961000
 GH     46    0     -1.89832000     -2.58476000      1.67025000
 GH     47    0     -2.37186000     -1.71454000      1.71125000
 GH     48    0     -1.39281000     -2.54903000      0.83471000
 GH     49    0      2.31825000      2.71368000      0.70214000
 GH     50    0      2.63834000      3.26980000      1.39888000
 GH     51    0      2.22390000      1.82734000      1.05173000
 GH     52    0     -1.06143000      3.61994000      2.62966000
 GH     53    0     -1.08861000      2.81737000      3.18187000
 GH     54    0     -1.79223000      4.16873000      3.05022000
 GH     55    0      2.37615000      3.10499000      4.02440000
 GH     56    0      1.49391000      3.11944000      4.49812000
 GH     57    0      2.99890000      3.40276000      4.74464000
 GH     58    0     -1.79148000      1.67015000      4.53687000
 GH     59    0     -2.15327000      1.89324000      5.41945000
 GH     60    0     -1.94583000      0.71886000      4.45897000
 GH     61    0     -0.50211000     -4.76342000     -1.71547000
 GH     62    0     -0.33691000     -5.33841000     -0.96373000
 GH     63    0      0.03037000     -5.26336000     -2.38545000
[GTO]
1    0
S    6    1.000000
   2.19171000E+04    1.86924085E-03 
   3.30149000E+03    1.42303065E-02 
   7.54146000E+02    6.96962317E-02 
   2.12711000E+02    2.38487108E-01 
   6.79896000E+01    4.83307219E-01 
   2.30515000E+01    3.38074154E-01 
SP   6    1.000000
   4.23735000E+02   -2.37677050E-03   4.06100998E-03 
   1.00710000E+02   -3.16930067E-02   3.06812999E-02 
   3.21599000E+01   -1.13317024E-01   1.30451999E-01 
   1.18079000E+01    5.60900118E-02   3.27204999E-01 
   4.63110000E+00    5.92255124E-01   4.52850998E-01 
   1.87025000E+00    4.55006095E-01   2.56041999E-01 
SP   3    1.000000
   2.61584000E+00   -2.50373114E-01  -1.45104896E-02 
   9.22167000E-01    6.69567631E-02   3.10262777E-01 
   3.41287000E-01    1.05450627E+00   7.54482457E-01 
SP   1    1.000000
   1.17167000E-01    1.00000000E+00   1.00000000E+00 
SP   1    1.000000
   4.05000000E-02    1.00000000E+00   1.00000000E+00 
D    1    1.000000
   6.50000000E-01    1.00000000E+00 

2    0
S    6    1.000000
   3.04752488E+03    1.83473713E-03 
   4.57369518E+02    1.40373228E-02 
   1.03948685E+02    6.88426223E-02 
   2.92101553E+01    2.32184443E-01 
   9.28666296E+00    4.67941348E-01 
   3.16392696E+00    3.62311985E-01 
SP   3    1.000000
   7.86827235E+00   -1.19332420E-01   6.89990666E-02 
   1.88128854E+00   -1.60854152E-01   3.16423961E-01 
   5.44249258E-01    1.14345644E+00   7.44308291E-01 
SP   1    1.000000
   1.68714478E-01    1.00000000E+00   1.00000000E+00 
SP   1    1.000000
   4.38000000E-02    1.00000000E+00   1.00000000E+00 
D    1    1.000000
   8.00000000E-01    1.00000000E+00 

3    0
S    6    1.000000
   4.17351146E+03    1.83477216E-03 
   6.27457911E+02    1.39946270E-02 
   1.42902093E+02    6.85865518E-02 
   4.02343293E+01    2.32240873E-01 
   1.28202129E+01    4.69069948E-01 
   4.39043701E+00    3.60455199E-01 
SP   3    1.000000
   1.16263619E+01   -1.14961182E-01   6.75797439E-02 
   2.71627981E+00   -1.69117479E-01   3.23907296E-01 
   7.72218397E-01    1.14585195E+00   7.40895140E-01 
SP   1    1.000000
   2.12031497E-01    1.00000000E+00   1.00000000E+00 
SP   1    1.000000
   6.39000000E-02    1.00000000E+00   1.00000000E+00 
D    1    1.000000
   8.00000000E-01    1.00000000E+00 

4    0
SP   1    1.000000
   8.45000000E-02    1.00000000E+00   1.00000000E+00 

5    0
S    1    1.000000
   1.61277759E-01    1.00000000E+00 

6    0
S    1    1.000000
   1.61277759E-01    1.00000000E+00 

7    0
SP   1    1.000000
   8.45000000E-02    1.00000000E+00   1.00000000E+00 

8    0
S    1    1.000000
   1.61277759E-01    1.00000000E+00 

9    0
S    1    1.000000
   1.61277759E-01    1.00000000E+00 

10    0
SP   1    1.000000
   8.45000000E-02    1.00000000E+00   1.00000000E+00 

11    0
S    1    1.000000
   1.61277759E-01    1.00000000E+00 

12    0
S    1    1.000000
   1.61277759E-01    1.00000000E+00 

13    0
SP   1    1.000000
   8.45000000E-02    1.00000000E+00   1.00000000E+00 

14    0
S    1    1.000000
   1.61277759E-01    1.00000000E+00 

15    0
S    1    1.000000
   1.61277759E-01    1.00000000E+00 

16    0
SP   1    1.000000
   8.45000000E-02    1.00000000E+00   1.00000000E+00 

17    0
S    1    1.000000
   1.61277759E-01    1.00000000E+00 

18    0
S    1    1.000000
   1.61277759E-01    1.00000000E+00 

19    0
SP   1    1.000000
   8.45000000E-02    1.00000000E+00   1.00000000E+00 

20    0
S    1    1.000000
   1.61277759E-01    1.00000000E+00 

21    0
S    1    1.000000
   1.61277759E-01    1.00000000E+00 

22    0
SP   1    1.000000
   8.45000000E-02    1.00000000E+00   1.00000000E+00 

23    0
S    1    1.000000
   1.61277759E-01    1.00000000E+00 

24    0
S    1    1.000000
   1.61277759E-01    1.00000000E+00 

25    0
SP   1    1.000000
   8.45000000E-02    1.00000000E+00   1.00000000E+00 

26    0
S    1    1.000000
   1.61277759E-01    1.00000000E+00 

27    0
S    1    1.000000
   1.61277759E-01    1.00000000E+00 

28    0
SP   1    1.000000
   8.45000000E-02    1.00000000E+00   1.00000000E+00 

29    0
S    1    1.000000
   1.61277759E-01    1.00000000E+00 

30    0
S    1    1.000000
   1.61277759E-01    1.00000000E+00 

31    0
SP   1    1.000000
   8.45000000E-02    1.00000000E+00   1.00000000E+00 

32    0
S    1    1.000000
   1.61277759E-01    1.00000000E+00 

33    0
S    1    1.000000
   1.61277759E-01    1.00000000E+00 

34    0
SP   1    1.000000
   8.45000000E-02    1.00000000E+00   1.00000000E+00 

35    0
S    1    1.000000
   1.61277759E-01    1.00000000E+00 

36    0
S    1    1.000000
   1.61277759E-01    1.00000000E+00 

37    0
SP   1    1.000000
   8.45000000E-02    1.00000000E+00   1.00000000E+00 

38    0
S    1    1.000000
   1.61277759E-01    1.00000000E+00 

39    0
S    1    1.000000
   1.61277759E-01    1.00000000E+00 

40    0
SP   1    1.000000
   8.45000000E-02    1.00000000E+00   1.00000000E+00 

41    0
S    1    1.000000
   1.61277759E-01    1.00000000E+00 

42    0
S    1    1.000000
   1.61277759E-01    1.00000000E+00 

43    0
SP   1    1.000000
   8.45000000E-02    1.00000000E+00   1.00000000E+00 

44    0
S    1    1.000000
   1.61277759E-01    1.00000000E+00 

45    0
S    1    1.000000
   1.61277759E-01    1.00000000E+00 

46    0
SP   1    1.000000
   8.45000000E-02    1.00000000E+00   1.00000000E+00 

47    0
S    1    1.000000
   1.61277759E-01    1.00000000E+00 

48    0
S    1    1.000000
   1.61277759E-01    1.00000000E+00 

49    0
SP   1    1.000000
   8.45000000E-02    1.00000000E+00   1.00000000E+00 

50    0
S    1    1.000000
   1.61277759E-01    1.00000000E+00 

51    0
S    1    1.000000
   1.61277759E-01    1.00000000E+00 

52    0
SP   1    1.000000
   8.45000000E-02    1.00000000E+00   1.00000000E+00 

53    0
S    1    1.000000
   1.61277759E-01    1.00000000E+00 

54    0
S    1    1.000000
   1.61277759E-01    1.00000000E+00 

55    0
SP   1    1.000000
   8.45000000E-02    1.00000000E+00   1.00000000E+00 

56    0
S    1    1.000000
   1.61277759E-01    1.00000000E+00 

57    0
S    1    1.000000
   1.61277759E-01    1.00000000E+00 

58    0
SP   1    1.000000
   8.45000000E-02    1.00000000E+00   1.00000000E+00 

59    0
S    1    1.000000
   1.61277759E-01    1.00000000E+00 

60    0
S    1    1.000000
   1.61277759E-01    1.00000000E+00 

61    0
SP   1    1.000000
   8.45000000E-02    1.00000000E+00   1.00000000E+00 

62    0
S    1    1.000000
   1.61277759E-01    1.00000000E+00 

63    0
S    1    1.000000
   1.61277759E-01    1.00000000E+00 

[MO]
Sym=X
Ene= -0.018973
Spin=Alpha
Occup=1
     1    5.370242146963e-03
     2    7.429173175207e-02
     3    2.852474136753e-03
     4   -1.636549737034e-03
     5   -2.960791124003e-02
     6    1.036608369768e+00
     7   -1.729612110375e-02
     8    9.035153573657e-03
     9    1.385885746532e-01
    10   -1.421888263600e+00
    11    7.168353096693e-02
    12   -4.048838284707e-02
    13   -2.893319368881e-01
    14   -1.815382868090e+00
    15    2.683011803209e-02
    16   -4.822276139981e-02
    17   -5.217861295177e-01
    18   -3.874815113529e-01
    19   -3.940730180838e-01
    20   -3.023240536371e-01
    21   -3.623140768890e-03
    22   -1.232730809478e-02
    23    6.646520802493e-03
    24    7.181781395214e-02
    25    3.632361232872e-01
    26   -1.367899842519e-02
    27    6.197349669458e-03
    28    7.487904433353e-02
    29   -1.028409816097e-01
    30    1.554620634172e-02
    31   -3.028126533899e-02
    32   -8.446865492331e-02
    33    2.625023501159e+00
    34    9.414907333171e-02
    35    2.213594811833e-01
    36   -1.113563263768e+00
    37   -1.964546562701e-01
    38   -1.943448454130e-01
    39   -5.546356229121e-01
    40    3.337193946829e-03
    41    4.485661973812e-02
    42   -2.455839437078e-02
    43    4.206197386693e-02
    44    1.019633605613e-01
    45   -2.152281046043e-03
    46   -3.154754466050e-03
    47   -3.529754966525e-02
    48    1.948124650328e-02
    49   -1.621627898913e-02
    50    8.480688858425e-03
    51    1.160529150084e-01
    52   -2.601360853082e-02
    53    2.479150599479e-02
    54   -8.197994832262e-02
    55    6.673120106181e-02
    56   -1.352790141207e-01
    57   -1.320677691946e-01
    58   -2.061221789650e-01
    59    7.536523993868e-04
    60    8.708311564995e-03
    61   -4.001157316673e-03
    62   -1.158452373546e-01
    63   -2.796994657457e-02
    64   -7.764407259837e-02
    65   -2.526010856694e-03
    66   -5.154552555964e-03
    67    7.139912051751e-02
    68   -8.257847675558e-02
    69   -3.063091323416e-02
    70    2.527256496332e-02
    71    1.995653870700e-02
    72    5.780453015599e-03
    73   -3.812534454891e-02
    74   -6.193504974053e-03
    75   -2.119674247420e-03
    76    5.895291181163e-03
    77   -1.547031393961e-03
    78    1.164294977944e-02
    79   -8.305246104587e-04
    80   -4.665579607604e-02
    81    5.257058002484e-02
    82   -1.459784884631e-03
    83   -5.986003165408e-03
    84   -1.105366560393e-02
    85    1.615293870273e-02
    86   -1.631095227530e-01
    87   -1.884177874076e-02
    88    6.992856974942e-02
    89   -1.193259699225e-02
    90    3.594821963239e-02
    91    2.684595018065e-02
    92   -5.746799601767e-03
    93    5.604938485786e-03
    94   -3.041818124708e-03
    95    1.029095688375e-03
    96    6.916674490793e-03
    97    9.471963894343e-04
    98    1.159750450153e-02
    99    2.369843447648e-03
   100   -9.046667540315e-03
   101    1.443021490106e-02
   102   -1.212022874631e-02
   103    6.716296898484e-03
   104    6.166530969815e-02
   105   -2.975866451988e-02
   106   -1.792899798848e-02
   107   -6.633496110863e-03
   108    2.724865800456e-03
   109   -3.593938830208e-02
   110   -1.719031642285e-02
   111   -2.173634188606e-03
   112   -1.918797580601e-03
   113   -1.032394848474e-02
   114   -1.448209383110e-02
   115    8.509970322685e-03
   116   -3.048182976256e-02
   117    1.648286347353e-02
   118    4.348181399662e-03
   119   -1.600460204919e-02
   120    2.577578811702e-02
   121    2.760857717504e-03
   122   -2.637734033304e-02
   123   -1.785569591273e-02
   124    8.158485985322e-03
   125   -6.762539304665e-03
   126    9.681579317918e-03
   127    1.093595506191e-02
   128   -9.501588756849e-04
   129   -8.566806851337e-05
   130   -1.715176410555e-03
   131    1.834433453197e-03
   132    8.812521723155e-04
   133    1.526116046032e-03
   134   -8.474305340357e-03
   135    1.504647712770e-03
   136   -3.997699434063e-03
   137    4.926188765631e-03
   138    3.090313197099e-04
   139    6.339877435707e-03
   140    3.367442964123e-02
   141    1.163196450066e-02
   142    1.336318494418e-02
   143   -1.985157129485e-02
   144   -4.292977682718e-03
   145   -6.352592855722e-03
   146    6.960658204049e-03
   147    1.152243002250e-02
   148   -1.099924289053e-02
   149    1.631812915014e-03
   150    1.174026922145e-02
   151   -5.656125503589e-03
   152   -3.186364694847e-02
   153    2.186945660183e-02
   154    3.845331754720e-02
   155    5.285475674617e-02
   156   -2.213557086645e-02
   157   -1.648298711447e-02
   158    1.475632026663e-02
   159    8.070805311136e-03
   160   -2.499550312835e-02
   161    1.350331255798e-02
   162   -1.859878553736e-02
   163    8.430833660332e-03
   164   -1.019947995898e-02
   165   -1.729343837880e-04
   166   -3.988310204164e-03
   167    7.193180798627e-03
   168    8.587506164207e-05
   169    4.321618123390e-03
   170    1.319053813352e-02
   171    1.123500837582e-02
   172   -2.390993218636e-02
   173   -2.072439121871e-02
   174    1.467294576184e-02
   175   -1.816955060647e-02
   176   -1.413500993611e-02
   177    8.398207644537e-03
   178   -3.624984767165e-03
   179   -1.212549052267e-02
   180    1.108014036281e-02
   181   -5.019940146321e-03
Sym=X
Ene= -0.024944
Spin=Alpha
Occup=1
     1    1.444565834280e-03
     2   -7.796633814289e-02
     3   -2.353489496179e-03
     4    2.102466269927e-03
     5    3.212378628416e-02
     6   -7.075682561550e-01
     7    9.461334552885e-03
     8   -6.223455002875e-03
     9   -1.093599066616e-01
    10    1.068117342810e+00
    11   -3.799349859948e-02
    12    8.200583514905e-03
    13    2.678126704912e-01
    14    3.244073259712e+00
    15   -9.205812456479e-02
    16    7.554125182020e-02
    17    9.492156592741e-01
    18    2.917926839882e-01
    19    2.981573087595e-01
    20    2.258679587215e-01
    21    2.098252728093e-03
    22    6.981797796162e-03
    23   -5.279250392849e-03
    24    5.284156054149e-02
    25    1.800896084157e-01
    26    2.741145980662e-02
    27   -9.129939772228e-03
    28   -1.924244540801e-01
    29   -2.344320163685e-01
    30   -1.983747875551e-02
    31   -7.902997052026e-04
    32    3.167213033527e-02
    33   -4.124226699286e+00
    34   -2.494499652433e-01
    35   -7.746687432311e-02
    36    1.567776843156e+00
    37   -4.950089941146e-02
    38   -5.439221003358e-02
    39   -1.280876331819e-01
    40    2.651722253766e-04
    41   -1.522790955585e-04
    42   -8.273677518924e-03
    43    7.222819161142e-02
    44    1.015715735465e-01
    45   -8.161804724197e-04
    46   -1.806813977903e-04
    47   -2.293355386469e-02
    48   -2.640975178662e-01
    49   -2.439340436151e-02
    50   -1.237658615529e-02
    51    8.552381113464e-02
    52    7.120057386494e-01
    53    8.803018693418e-02
    54    4.184002984995e-02
    55   -4.651082274180e-01
    56   -2.211523455058e-01
    57   -2.124838633056e-01
    58   -4.481004203812e-01
    59    1.225961249756e-03
    60    2.419678761296e-02
    61   -1.732137657378e-02
    62    6.141613678014e-02
    63    1.785538506420e-02
    64    4.036652797169e-02
    65    5.163064804735e-03
    66    3.172084816646e-03
    67   -3.352847180491e-02
    68    3.264494937114e-02
    69    1.528655889336e-02
    70   -1.793126131914e-02
    71   -1.708574411641e-02
    72    4.983838719332e-03
    73    2.340166488514e-02
    74   -2.705166746744e-03
    75   -5.185237212557e-03
    76   -6.037979121371e-03
    77   -1.066529144757e-03
    78   -2.052494357797e-03
    79   -1.598289929417e-03
    80    3.878977530482e-02
    81   -2.426847788747e-02
    82   -2.088204042362e-03
    83    6.708319147434e-03
    84    1.294007949628e-03
    85   -1.478687537086e-02
    86    6.923607245639e-02
    87    8.889894433236e-03
    88   -3.375190832480e-02
    89   -4.749161878589e-03
    90   -1.138158578899e-02
    91   -5.254770015359e-03
    92   -5.819242171130e-04
    93   -4.169408140710e-03
    94    9.730915145683e-04
    95   -7.550723906406e-03
    96   -1.232108614364e-02
    97    2.442532716403e-03
    98   -9.575080879392e-03
    99   -3.562054418243e-04
   100    7.292983746985e-03
   101   -1.309017945008e-02
   102    7.674233613142e-03
   103   -9.800267108142e-03
   104    3.969776537184e-02
   105   -2.363540902730e-02
   106    2.965772936451e-02
   107    7.777284768314e-05
   108   -3.247501992028e-02
   109   -2.370747373982e-02
   110   -3.071357249868e-02
   111   -1.857755700275e-03
   112    7.380065365098e-03
   113   -1.285228628632e-02
   114    3.442166639065e-02
   115   -3.692603064460e-03
   116    2.437286491222e-03
   117   -7.931343968204e-03
   118    3.809320202181e-03
   119    1.413365110530e-02
   120   -1.280150734452e-02
   121    4.712527817541e-03
   122    9.033084271265e-03
   123    1.198609392869e-02
   124   -4.299227953430e-03
   125   -1.135041607335e-03
   126   -5.782296025713e-03
   127   -1.039567628871e-02
   128   -2.290460850059e-03
   129   -1.076251745129e-03
   130    1.341547501230e-03
   131    1.806762230762e-03
   132   -3.195500652974e-03
   133    2.395247929436e-03
   134   -5.252980847572e-03
   135   -2.554084407159e-03
   136   -5.742695593925e-04
   137   -1.383775635418e-02
   138    8.773296183721e-04
   139    6.395544474535e-04
   140    3.634478720961e-02
   141   -1.981919881744e-02
   142    2.266051956938e-02
   143    1.040168270230e-03
   144   -3.410643446512e-02
   145   -2.282098292401e-03
   146   -1.849409145288e-02
   147   -7.114836717714e-03
   148    4.643425568298e-03
   149   -1.137041446674e-02
   150   -6.308074261545e-03
   151    3.091279101368e-03
   152   -2.429534327307e-03
   153   -9.835850383252e-03
   154   -2.102780122145e-02
   155   -3.808278993621e-02
   156    1.816326531102e-02
   157    1.154614356653e-02
   158   -6.024309957098e-03
   159   -6.702502705443e-04
   160    1.164502007524e-02
   161   -3.783228024911e-03
   162    2.013771967817e-03
   163   -2.001103109216e-03
   164   -6.414344295903e-03
   165    1.130733617927e-03
   166    3.825048157211e-03
   167   -8.586526921146e-03
   168    6.436726013505e-04
   169    2.298781274719e-03
   170    1.094324884835e-02
   171    8.190142065222e-03
   172   -8.532814093010e-03
   173   -1.208799443463e-02
   174    5.813815362446e-03
   175   -7.948913955852e-03
   176    3.020104806403e-03
   177   -3.905131835731e-03
   178    1.188584866350e-03
   179    1.115482919712e-02
   180   -9.249745430852e-03
   181    5.361109797295e-03
Sym=X
Ene= -0.054167
Spin=Alpha
Occup=1
     1    6.542574446086e-03
     2   -6.272588738218e-02
     3   -2.086215585047e-02
     4   -8.916098475004e-03
     5    1.354567009032e-01
     6   -1.584597878765e-01
     7    4.384876145257e-02
     8    2.050840518629e-02
     9   -2.989866967261e-01
    10    9.777349566812e-01
    11   -2.027604170436e-02
    12    9.347810183217e-02
    13    2.051126830923e-01
    14   -2.256898807030e-01
    15    1.083080798340e-02
    16   -1.513790876929e-01
    17   -9.189059101173e-02
    18    1.609656678684e-01
    19    1.791609338110e-01
    20   -1.104574797728e-01
    21    3.002832840336e-03
    22    3.843690243545e-02
    23   -1.294922005750e-02
    24    4.156696646952e-02
    25    2.800864169747e-01
    26    6.337062546685e-03
    27   -6.597438065270e-03
    28   -5.699785549078e-02
    29    3.174122771010e-01
    30   -1.001026953054e-01
    31    4.424859979010e-02
    32    9.524397122514e-01
    33    6.751932443790e-01
    34   -1.749931046354e-02
    35    1.435140286925e-01
    36    2.842239989609e-01
    37   -7.521105893880e-02
    38   -7.459952139199e-02
    39   -3.508463698825e-01
    40    1.959753938796e-03
    41    3.214223742624e-02
    42   -1.757865581132e-02
    43   -2.738700954498e-02
    44    9.353071312239e-02
    45   -2.188626007039e-02
    46    2.392634218261e-02
    47    2.417857941656e-01
    48   -4.418707036146e-01
    49   -4.948036916684e-02
    50    6.987672971206e-02
    51    7.227138170205e-01
    52   -1.083850130559e+00
    53   -3.348940469894e-02
    54   -6.777642932383e-02
    55   -7.195153676663e-02
    56    1.026498294557e-01
    57    9.741020904709e-02
    58    1.247067721608e-01
    59    2.010711558762e-04
    60   -1.094497935651e-04
    61    5.114449452106e-03
    62   -4.039960335050e-03
    63    2.902073102193e-03
    64   -5.411698448730e-03
    65   -2.107291616731e-03
    66   -6.586792925666e-03
    67    1.134962617738e-02
    68   -2.542275175145e-02
    69   -1.286547204797e-02
    70    4.046059935081e-04
    71   -2.286870082230e-02
    72    7.207171336724e-03
    73    7.442333669483e-03
    74    2.030411862573e-03
    75   -1.348191415208e-03
    76    1.934412884477e-03
    77    2.907984416512e-03
    78    8.048753890343e-04
    79   -1.554722217000e-03
    80   -1.234675906354e-02
    81   -3.576188181158e-03
    82    1.680130826173e-03
    83   -5.278655831476e-03
    84    6.353985505367e-03
    85   -2.697293154819e-03
    86    1.449166235988e-02
    87   -5.689171503761e-03
    88   -3.763972713771e-03
    89    5.012017000784e-03
    90   -1.573099788432e-02
    91   -3.127547559548e-03
    92   -2.991743115369e-03
    93    6.908702020834e-04
    94    1.503538995541e-03
    95    6.400634074666e-04
    96    4.541733044788e-03
    97   -1.991801989143e-03
    98   -2.046216542382e-02
    99   -3.959928543254e-03
   100   -1.955842065471e-03
   101   -7.504387756318e-04
   102    6.009919954511e-03
   103    1.354314240657e-03
   104    4.770929018077e-02
   105   -2.787462580376e-02
   106    1.800915019203e-03
   107   -1.743053364579e-02
   108   -3.336695731753e-03
   109   -1.141483034676e-02
   110    3.975432951938e-02
   111    9.544745229576e-03
   112    2.509096742065e-03
   113    9.512219098163e-03
   114    3.378809855295e-03
   115   -7.990937057394e-03
   116    2.032108530419e-02
   117   -7.639351299284e-03
   118   -7.641942116188e-03
   119   -2.659311534960e-03
   120   -1.038829556860e-03
   121   -7.869508821052e-03
   122    1.892790781510e-02
   123    1.201253564985e-02
   124   -3.720243582226e-03
   125    4.999467549453e-03
   126   -6.344891661794e-03
   127   -1.440121711213e-04
   128   -4.626477389948e-03
   129   -2.580397608002e-03
   130    4.297879786182e-04
   131    6.922061582674e-04
   132    6.789061210909e-04
   133    2.232405170011e-03
   134   -2.479594630429e-02
   135    1.759676626677e-03
   136   -7.339855557263e-03
   137   -6.961608244521e-03
   138    1.035770293269e-02
   139    3.538940504355e-03
   140   -4.051170618924e-03
   141    1.417260604997e-03
   142    3.251395330488e-03
   143    1.581335408897e-03
   144   -2.984863877058e-03
   145    3.302515412186e-03
   146   -6.710468735796e-03
   147   -9.251239442165e-04
   148    4.194882389992e-03
   149    4.376170363291e-03
   150   -3.105865953324e-03
   151    2.141625776878e-03
   152   -2.867714711182e-02
   153   -3.885711727565e-03
   154    5.789124288166e-03
   155   -1.695674899603e-02
   156    8.928725936884e-03
   157    5.719590672548e-03
   158   -1.161106540294e-02
   159    7.866601201336e-03
   160   -3.492496440060e-03
   161   -1.495168171525e-03
   162   -7.909392938541e-03
   163    9.737758338650e-03
   164   -1.169823603005e-02
   165    1.043065681840e-02
   166    6.838030646892e-03
   167    2.170215686734e-03
   168    5.059540219506e-03
   169   -9.588187843839e-04
   170   -2.542637864548e-03
   171    4.194916849299e-03
   172   -2.826802103488e-03
   173   -1.181031876609e-02
   174    9.777732208556e-03
   175   -7.499217360623e-03
   176   -3.943796073868e-03
   177   -1.825832645983e-03
   178    1.726825108364e-05
   179    1.073787556365e-03
   180    2.622813321722e-04
   181    2.149983125741e-03
Sym=X
Ene= -0.056205
Spin=Alpha
Occup=1
     1   -5.740149221851e-04
     2    1.252725916576e-03
     3   -5.539898146986e-02
     4   -1.718751616420e-01
     5   -1.076961412537e-02
     6    3.428186904434e-03
     7    1.148074424159e-01
     8    3.763937406317e-01
     9    2.259460248275e-02
    10   -4.096538253109e-02
    11    4.236250220479e-01
    12    1.074445751343e+00
    13   -4.070629244652e-02
    14   -2.135761434257e-01
    15   -2.046184060927e-01
    16   -5.697289685850e-01
    17   -7.329352392949e-03
    18   -3.076079358327e-02
    19   -1.779455388861e-02
    20    1.749977194601e-02
    21   -1.009507104624e-02
    22    2.398793421862e-03
    23    7.526644480431e-03
    24   -4.094041773387e-03
    25   -2.687886902564e-02
    26   -2.474589925781e-02
    27   -6.281355195386e-02
    28    1.044062054837e-03
    29   -5.544340394861e-03
    30   -1.164764229364e-02
    31   -1.480470558509e-01
    32   -1.126123832912e-01
    33   -5.795796105943e-01
    34   -2.831821902143e-01
    35   -3.433083893011e-01
    36   -4.088921048901e-01
    37    8.069271034361e-03
    38    8.356533498683e-03
    39    2.724171110334e-02
    40   -5.868436250043e-05
    41   -5.336191888357e-03
    42   -3.780637767499e-03
    43    4.663009370831e-03
    44    2.646844553778e-03
    45    3.927000845480e-02
    46    1.077220204670e-01
    47   -1.935081633534e-02
    48   -1.061686161792e-02
    49   -2.062337386006e-02
    50   -7.136458972058e-03
    51   -5.760336802078e-02
    52    7.687176558800e-01
    53    1.493278275496e-01
    54    1.677808771444e-01
    55   -4.968762685820e-02
    56   -5.840816783470e-03
    57   -2.548810736611e-03
    58   -1.030105363788e-02
    59   -1.245653558196e-03
    60    5.481990033074e-03
    61    6.441532682536e-03
    62   -2.293575074031e-01
    63   -1.824360423451e-02
    64   -6.114849152364e-02
    65    2.695131971928e-02
    66   -2.572138193346e-03
    67    1.308692943054e-01
    68   -1.394852431248e-02
    69   -6.363482865507e-03
    70    2.158498210611e-02
    71    9.110253237359e-03
    72    1.608199918693e-02
    73    1.187136402051e-02
    74   -2.541818851255e-02
    75   -3.068835121472e-02
    76   -6.989472049883e-03
    77    7.481272548367e-04
    78    3.116750605342e-02
    79   -1.247955860862e-02
    80    1.535540614560e-01
    81   -3.097175418710e-02
    82   -1.574807407241e-03
    83   -2.350535668678e-04
    84   -2.569468885656e-02
    85   -2.201929200324e-02
    86    1.020768466701e-01
    87    1.710157012640e-02
    88   -2.801037161353e-02
    89   -2.371105234481e-02
    90   -3.911526667423e-03
    91    8.801159565701e-03
    92    4.067169686872e-02
    93    2.071550642883e-03
    94    3.793856831817e-02
    95   -1.548260185926e-02
    96   -7.000067330257e-03
    97   -3.194225613615e-02
    98    5.697974905414e-03
    99    4.366311654439e-03
   100    6.859618530793e-03
   101    5.934385951193e-03
   102   -3.492843004995e-03
   103   -4.723042618561e-04
   104    5.381571228251e-02
   105   -4.402529009683e-03
   106   -6.387784320700e-03
   107   -1.544890235775e-02
   108   -8.643194932454e-03
   109   -1.729210237099e-02
   110    2.334650776025e-01
   111    2.164480513616e-02
   112   -2.539008455916e-02
   113    6.808278117102e-02
   114   -1.471591251054e-01
   115   -5.047362631020e-03
   116    9.519216799409e-02
   117   -4.553109453205e-02
   118   -1.326718032032e-02
   119   -1.305275275902e-02
   120   -1.584957826589e-02
   121    5.046323816544e-03
   122   -7.866299763212e-03