[Molden Format]
[Atoms] (Angs)
  S      1   16      0.70955000     -0.28088000     -1.53333000
  C      2    6      0.46967000     -0.20843000      0.13142000
  N      3    7      0.36180000     -0.12531000      1.30404000
 GH      4    0     -1.48405000     -2.43383000     -1.16514000
 GH      5    0     -1.01211000     -3.30583000     -1.40991000
 GH      6    0     -0.81234000     -1.73944000     -1.40387000
 GH      7    0     -2.23915000      1.50976000     -0.63721000
 GH      8    0     -1.52568000      2.14576000     -0.57564000
 GH      9    0     -1.91881000      0.82175000      0.03203000
 GH     10    0     -3.46177000     -2.33344000     -3.09333000
 GH     11    0     -2.76733000     -2.51217000     -2.42282000
 GH     12    0     -4.10241000     -2.99275000     -2.76302000
 GH     13    0      3.98454000     -0.26814000      0.46814000
 GH     14    0      4.86052000     -0.63808000      0.39819000
 GH     15    0      3.86806000     -0.31932000      1.46583000
 GH     16    0     -0.25428000      3.21364000      0.01296000
 GH     17    0     -0.59898000      3.55167000      0.85380000
 GH     18    0      0.64819000      2.97490000      0.15767000
 GH     19    0      3.71975000     -1.76917000     -3.54767000
 GH     20    0      3.31514000     -0.94103000     -3.14514000
 GH     21    0      4.07360000     -1.34296000     -4.37515000
 GH     22    0     -3.56484000     -0.33466000      2.31168000
 GH     23    0     -4.11726000     -0.37749000      3.08375000
 GH     24    0     -3.80832000      0.51167000      1.86878000
 GH     25    0      2.56931000      0.45889000      3.10429000
 GH     26    0      2.69234000      1.37842000      3.23812000
 GH     27    0      1.74686000      0.27372000      2.61507000
 GH     28    0      0.66037000      2.15583000     -3.36336000
 GH     29    0      0.71334000      1.54137000     -2.65406000
 GH     30    0      1.32053000      2.82821000     -3.11677000
 GH     31    0      4.08937000      2.02400000     -1.29877000
 GH     32    0      3.64484000      2.60341000     -0.61814000
 GH     33    0      3.71120000      1.17452000     -1.07363000
 GH     34    0     -2.33313000      1.57770000     -3.50823000
 GH     35    0     -2.37856000      1.50540000     -2.48834000
 GH     36    0     -1.34757000      1.62486000     -3.62693000
 GH     37    0     -4.96230000     -0.76430000     -0.59747000
 GH     38    0     -4.54002000     -0.74338000      0.27736000
 GH     39    0     -4.41091000     -1.37300000     -1.17068000
 GH     40    0      1.57617000     -3.21413000     -3.96080000
 GH     41    0      1.47368000     -2.91167000     -3.05557000
 GH     42    0      2.47516000     -2.81715000     -4.01140000
 GH     43    0     -0.98107000     -2.39445000      4.28950000
 GH     44    0     -1.66333000     -1.99174000      4.86573000
 GH     45    0     -1.08297000     -2.13697000      3.37961000
 GH     46    0     -1.89832000     -2.58476000      1.67025000
 GH     47    0     -2.37186000     -1.71454000      1.71125000
 GH     48    0     -1.39281000     -2.54903000      0.83471000
 GH     49    0      2.31825000      2.71368000      0.70214000
 GH     50    0      2.63834000      3.26980000      1.39888000
 GH     51    0      2.22390000      1.82734000      1.05173000
 GH     52    0     -1.06143000      3.61994000      2.62966000
 GH     53    0     -1.08861000      2.81737000      3.18187000
 GH     54    0     -1.79223000      4.16873000      3.05022000
 GH     55    0      2.37615000      3.10499000      4.02440000
 GH     56    0      1.49391000      3.11944000      4.49812000
 GH     57    0      2.99890000      3.40276000      4.74464000
 GH     58    0     -1.79148000      1.67015000      4.53687000
 GH     59    0     -2.15327000      1.89324000      5.41945000
 GH     60    0     -1.94583000      0.71886000      4.45897000
 GH     61    0     -0.50211000     -4.76342000     -1.71547000
 GH     62    0     -0.33691000     -5.33841000     -0.96373000
 GH     63    0      0.03037000     -5.26336000     -2.38545000
[GTO]
1    0
S    6    1.000000
   2.19171000E+04    1.86924085E-03 
   3.30149000E+03    1.42303065E-02 
   7.54146000E+02    6.96962317E-02 
   2.12711000E+02    2.38487108E-01 
   6.79896000E+01    4.83307219E-01 
   2.30515000E+01    3.38074154E-01 
SP   6    1.000000
   4.23735000E+02   -2.37677050E-03   4.06100998E-03 
   1.00710000E+02   -3.16930067E-02   3.06812999E-02 
   3.21599000E+01   -1.13317024E-01   1.30451999E-01 
   1.18079000E+01    5.60900118E-02   3.27204999E-01 
   4.63110000E+00    5.92255124E-01   4.52850998E-01 
   1.87025000E+00    4.55006095E-01   2.56041999E-01 
SP   3    1.000000
   2.61584000E+00   -2.50373114E-01  -1.45104896E-02 
   9.22167000E-01    6.69567631E-02   3.10262777E-01 
   3.41287000E-01    1.05450627E+00   7.54482457E-01 
SP   1    1.000000
   1.17167000E-01    1.00000000E+00   1.00000000E+00 
SP   1    1.000000
   4.05000000E-02    1.00000000E+00   1.00000000E+00 
D    1    1.000000
   6.50000000E-01    1.00000000E+00 

2    0
S    6    1.000000
   3.04752488E+03    1.83473713E-03 
   4.57369518E+02    1.40373228E-02 
   1.03948685E+02    6.88426223E-02 
   2.92101553E+01    2.32184443E-01 
   9.28666296E+00    4.67941348E-01 
   3.16392696E+00    3.62311985E-01 
SP   3    1.000000
   7.86827235E+00   -1.19332420E-01   6.89990666E-02 
   1.88128854E+00   -1.60854152E-01   3.16423961E-01 
   5.44249258E-01    1.14345644E+00   7.44308291E-01 
SP   1    1.000000
   1.68714478E-01    1.00000000E+00   1.00000000E+00 
SP   1    1.000000
   4.38000000E-02    1.00000000E+00   1.00000000E+00 
D    1    1.000000
   8.00000000E-01    1.00000000E+00 

3    0
S    6    1.000000
   4.17351146E+03    1.83477216E-03 
   6.27457911E+02    1.39946270E-02 
   1.42902093E+02    6.85865518E-02 
   4.02343293E+01    2.32240873E-01 
   1.28202129E+01    4.69069948E-01 
   4.39043701E+00    3.60455199E-01 
SP   3    1.000000
   1.16263619E+01   -1.14961182E-01   6.75797439E-02 
   2.71627981E+00   -1.69117479E-01   3.23907296E-01 
   7.72218397E-01    1.14585195E+00   7.40895140E-01 
SP   1    1.000000
   2.12031497E-01    1.00000000E+00   1.00000000E+00 
SP   1    1.000000
   6.39000000E-02    1.00000000E+00   1.00000000E+00 
D    1    1.000000
   8.00000000E-01    1.00000000E+00 

4    0
SP   1    1.000000
   8.45000000E-02    1.00000000E+00   1.00000000E+00 

5    0
S    1    1.000000
   1.61277759E-01    1.00000000E+00 

6    0
S    1    1.000000
   1.61277759E-01    1.00000000E+00 

7    0
SP   1    1.000000
   8.45000000E-02    1.00000000E+00   1.00000000E+00 

8    0
S    1    1.000000
   1.61277759E-01    1.00000000E+00 

9    0
S    1    1.000000
   1.61277759E-01    1.00000000E+00 

10    0
SP   1    1.000000
   8.45000000E-02    1.00000000E+00   1.00000000E+00 

11    0
S    1    1.000000
   1.61277759E-01    1.00000000E+00 

12    0
S    1    1.000000
   1.61277759E-01    1.00000000E+00 

13    0
SP   1    1.000000
   8.45000000E-02    1.00000000E+00   1.00000000E+00 

14    0
S    1    1.000000
   1.61277759E-01    1.00000000E+00 

15    0
S    1    1.000000
   1.61277759E-01    1.00000000E+00 

16    0
SP   1    1.000000
   8.45000000E-02    1.00000000E+00   1.00000000E+00 

17    0
S    1    1.000000
   1.61277759E-01    1.00000000E+00 

18    0
S    1    1.000000
   1.61277759E-01    1.00000000E+00 

19    0
SP   1    1.000000
   8.45000000E-02    1.00000000E+00   1.00000000E+00 

20    0
S    1    1.000000
   1.61277759E-01    1.00000000E+00 

21    0
S    1    1.000000
   1.61277759E-01    1.00000000E+00 

22    0
SP   1    1.000000
   8.45000000E-02    1.00000000E+00   1.00000000E+00 

23    0
S    1    1.000000
   1.61277759E-01    1.00000000E+00 

24    0
S    1    1.000000
   1.61277759E-01    1.00000000E+00 

25    0
SP   1    1.000000
   8.45000000E-02    1.00000000E+00   1.00000000E+00 

26    0
S    1    1.000000
   1.61277759E-01    1.00000000E+00 

27    0
S    1    1.000000
   1.61277759E-01    1.00000000E+00 

28    0
SP   1    1.000000
   8.45000000E-02    1.00000000E+00   1.00000000E+00 

29    0
S    1    1.000000
   1.61277759E-01    1.00000000E+00 

30    0
S    1    1.000000
   1.61277759E-01    1.00000000E+00 

31    0
SP   1    1.000000
   8.45000000E-02    1.00000000E+00   1.00000000E+00 

32    0
S    1    1.000000
   1.61277759E-01    1.00000000E+00 

33    0
S    1    1.000000
   1.61277759E-01    1.00000000E+00 

34    0
SP   1    1.000000
   8.45000000E-02    1.00000000E+00   1.00000000E+00 

35    0
S    1    1.000000
   1.61277759E-01    1.00000000E+00 

36    0
S    1    1.000000
   1.61277759E-01    1.00000000E+00 

37    0
SP   1    1.000000
   8.45000000E-02    1.00000000E+00   1.00000000E+00 

38    0
S    1    1.000000
   1.61277759E-01    1.00000000E+00 

39    0
S    1    1.000000
   1.61277759E-01    1.00000000E+00 

40    0
SP   1    1.000000
   8.45000000E-02    1.00000000E+00   1.00000000E+00 

41    0
S    1    1.000000
   1.61277759E-01    1.00000000E+00 

42    0
S    1    1.000000
   1.61277759E-01    1.00000000E+00 

43    0
SP   1    1.000000
   8.45000000E-02    1.00000000E+00   1.00000000E+00 

44    0
S    1    1.000000
   1.61277759E-01    1.00000000E+00 

45    0
S    1    1.000000
   1.61277759E-01    1.00000000E+00 

46    0
SP   1    1.000000
   8.45000000E-02    1.00000000E+00   1.00000000E+00 

47    0
S    1    1.000000
   1.61277759E-01    1.00000000E+00 

48    0
S    1    1.000000
   1.61277759E-01    1.00000000E+00 

49    0
SP   1    1.000000
   8.45000000E-02    1.00000000E+00   1.00000000E+00 

50    0
S    1    1.000000
   1.61277759E-01    1.00000000E+00 

51    0
S    1    1.000000
   1.61277759E-01    1.00000000E+00 

52    0
SP   1    1.000000
   8.45000000E-02    1.00000000E+00   1.00000000E+00 

53    0
S    1    1.000000
   1.61277759E-01    1.00000000E+00 

54    0
S    1    1.000000
   1.61277759E-01    1.00000000E+00 

55    0
SP   1    1.000000
   8.45000000E-02    1.00000000E+00   1.00000000E+00 

56    0
S    1    1.000000
   1.61277759E-01    1.00000000E+00 

57    0
S    1    1.000000
   1.61277759E-01    1.00000000E+00 

58    0
SP   1    1.000000
   8.45000000E-02    1.00000000E+00   1.00000000E+00 

59    0
S    1    1.000000
   1.61277759E-01    1.00000000E+00 

60    0
S    1    1.000000
   1.61277759E-01    1.00000000E+00 

61    0
SP   1    1.000000
   8.45000000E-02    1.00000000E+00   1.00000000E+00 

62    0
S    1    1.000000
   1.61277759E-01    1.00000000E+00 

63    0
S    1    1.000000
   1.61277759E-01    1.00000000E+00 

[MO]
Sym=X
Ene= -0.903993
Spin=Alpha
Occup=1
     1   -2.580921208019e-04
     2    3.603745838326e-04
     3    1.984371903778e-01
     4   -1.088752373245e-01
     5    3.520295655326e-02
     6   -1.975514439754e-02
     7   -5.217051785795e-01
     8    2.858431253876e-01
     9   -9.302494009398e-02
    10    2.778836983748e-02
    11   -3.425789798665e-01
    12    1.930494520662e-01
    13   -5.628031195927e-02
    14   -3.320097459184e-01
    15   -7.405595595592e-02
    16    4.867866536915e-02
    17   -1.021645609202e-01
    18    1.273733052681e-02
    19    1.106955428500e-02
    20    1.207226233953e-03
    21   -1.680156987398e-04
    22   -9.757964005520e-03
    23    3.570190842520e-03
    24    2.143408729361e-04
    25    2.782852698283e-03
    26    5.079014739949e-02
    27   -3.395206956286e-02
    28    1.948278158400e-02
    29   -1.110237898620e-02
    30    1.664562601580e-03
    31   -1.309859031915e-02
    32    6.940823987801e-03
    33    2.622777334342e-01
    34    8.188250932551e-02
    35   -4.052391200650e-02
    36   -1.283348506546e-01
    37   -8.650219186100e-03
    38   -2.514182980555e-03
    39    1.242618845446e-02
    40    4.043076000733e-03
    41    3.061369952245e-02
    42   -1.684113229690e-02
    43    2.285218580267e-03
    44   -5.418970245124e-03
    45    2.304128946485e-01
    46   -1.286317068305e-01
    47    1.520289040362e-02
    48   -1.372529284665e-02
    49    1.875271101274e-01
    50   -9.849597243256e-02
    51    1.964933986752e-02
    52    3.429984968453e-02
    53    3.329947572022e-02
    54   -9.664602475591e-03
    55    1.858209519977e-02
    56    3.920213953252e-03
    57   -3.592724989701e-04
    58   -3.558016712156e-03
    59   -7.633366414287e-04
    60   -9.655100762307e-03
    61    5.565704219678e-03
    62   -1.135360793625e-02
    63   -4.790179541327e-03
    64    2.856455468606e-03
    65    1.731612636793e-05
    66    2.903255422337e-03
    67    1.368165152149e-02
    68   -4.913859722123e-03
    69   -9.438131662863e-03
    70   -4.754592634084e-03
    71    5.426739213973e-03
    72    1.074716704771e-02
    73   -4.444669429659e-03
    74    1.829755391226e-03
    75    2.001934246906e-03
    76    4.159124958211e-04
    77    1.482433920235e-03
    78   -1.450334858975e-03
    79   -2.302273178750e-04
    80    2.928695406300e-03
    81   -4.601448061673e-03
    82    1.719607261674e-03
    83    2.197081442697e-03
    84    3.079379712769e-03
    85   -4.903938251581e-03
    86   -5.046363214442e-03
    87   -2.914813958119e-03
    88   -2.281700582014e-03
    89   -8.407254252407e-03
    90    5.780399827316e-03
    91    4.462924825359e-03
    92    7.866568475156e-03
    93   -2.030581997280e-03
    94   -8.371381330403e-04
    95    5.037326063399e-03
    96   -8.575688069685e-03
    97    3.503548862156e-03
    98    4.577813331030e-03
    99    2.740847700457e-03
   100    5.343217214228e-04
   101   -2.440751708433e-03
   102    1.188050842108e-03
   103   -1.838936220836e-03
   104    5.321923396628e-03
   105   -2.675643218688e-03
   106    6.676049808164e-04
   107   -1.429085259568e-03
   108   -9.922300706672e-04
   109   -7.685309998707e-03
   110   -3.218419523576e-03
   111    7.283751937794e-03
   112    5.912521264967e-03
   113    3.079923104980e-03
   114    5.103226664586e-03
   115   -6.841962281653e-03
   116    9.091045350047e-03
   117   -2.178024183626e-03
   118   -2.514076973608e-03
   119    5.602065129723e-04
   120    1.310485551931e-03
   121   -5.229776498837e-03
   122   -1.235895173067e-02
   123   -2.652582853349e-03
   124    3.258814917153e-03
   125   -2.814613698358e-03
   126    7.290201406838e-03
   127    7.125412580386e-03
   128    3.041403637608e-03
   129    1.793387861380e-03
   130   -1.988490886876e-03
   131   -2.071470111623e-04
   132   -2.011022905237e-03
   133   -2.643780370037e-03
   134    9.517944902024e-03
   135   -3.036176827371e-03
   136    2.976132320801e-03
   137    4.412430228073e-03
   138   -4.929290701871e-03
   139    1.518784444421e-04
   140    2.327022507879e-03
   141    7.869360576876e-04
   142    1.342036690347e-04
   143   -1.298395473202e-03
   144    3.276339174534e-04
   145   -1.318297634096e-03
   146    1.284218130341e-02
   147    2.370673077832e-03
   148    5.143307164249e-03
   149   -2.783060166263e-03
   150   -4.580190024799e-03
   151   -1.263308047989e-04
   152   -3.676687201898e-03
   153   -3.262329537163e-03
   154    6.429864987828e-03
   155    1.191685490019e-03
   156   -2.495614326808e-05
   157    3.845170112879e-03
   158    6.407457332055e-03
   159    1.268109838437e-03
   160   -2.515366266693e-03
   161   -2.693310233456e-03
   162   -1.889170579982e-03
   163   -9.649292534320e-05
   164   -1.362399087815e-04
   165    1.098493012180e-03
   166   -1.819857753292e-04
   167    2.103410302612e-05
   168    6.133064378949e-04
   169   -4.131292717764e-04
   170    6.796199501683e-04
   171   -3.216023153081e-05
   172    1.408958448700e-03
   173    5.603761497437e-04
   174   -7.083408033991e-04
   175    7.812262601927e-04
   176    4.705730670240e-03
   177   -1.346464475463e-03
   178    3.334963626965e-03
   179    1.923250725921e-03
   180   -8.682732162078e-04
   181    6.198394753058e-04
Sym=X
Ene= 0.903993
Spin=Alpha
Occup=0
     1    6.658100245718e-03
     2   -3.065062262212e-02
     3    1.804704223852e-04
     4    4.501850140021e-03
     5   -2.493391896140e-02
     6    5.227613861900e-02
     7   -3.640981191860e-03
     8   -1.545057789089e-02
     9    7.284175573899e-02
    10    1.468351927557e-01
    11    2.613938147461e-02
    12    3.052632016074e-02
    13    2.898843089453e-02
    14   -2.371471027728e+00
    15   -2.633928445327e-01
    16    3.106219097226e-01
    17   -4.670902067458e-01
    18    1.115693952722e-02
    19    1.477417660779e-02
    20    1.356576822413e-02
    21    1.016980116161e-03
    22    2.149205497956e-03
    23    1.457311062071e-03
    24    1.359594908519e-02
    25    3.221783216810e-03
    26    2.045718613934e-03
    27    1.515669988490e-02
    28    1.297043266973e-02
    29   -2.977056971095e-01
    30   -2.783864804795e-02
    31    7.455452980825e-02
    32   -1.117232405212e-01
    33   -2.459855590608e+00
    34    9.956018191906e-01
    35   -9.851802648315e-01
    36   -2.688469496824e+00
    37   -7.686386503905e-03
    38   -7.467979999074e-03
    39    1.057571690116e-02
    40    3.870288514943e-05
    41   -3.599996283124e-03
    42    3.678965196907e-05
    43   -2.166314884204e-02
    44    7.376032413524e-02
    45   -2.075846797249e-02
    46   -4.433541892095e-03
    47    8.065347079433e-03
    48    5.080320357436e-02
    49   -2.624285581552e-02
    50    1.762314075061e-02
    51   -5.391851109852e-02
    52    3.955743208861e+00
    53   -1.747386117894e-01
    54    3.369133730649e-02
    55   -4.606250031736e-01
    56    4.657299752732e-03
    57    5.544607001009e-03
    58    6.761457383356e-03
    59    4.619482488195e-04
    60    8.615554956654e-04
    61   -5.212828041267e-04
    62    7.976181129405e-02
    63   -2.264791282951e-02
    64    1.205373309866e-01
    65    4.533667579638e-02
    66    2.701855537540e-02
    67   -5.092676556857e-03
    68    3.549981462344e-01
    69    1.632424079622e-01
    70   -2.833767258469e-02
    71   -5.247034498485e-03
    72   -1.248426814979e-01
    73    5.991756815309e-02
    74   -4.066390410771e-02
    75    3.040153213606e-03
    76    4.976515503714e-04
    77   -2.481665293880e-02
    78    1.452717450101e-02
    79    1.869107042953e-02
    80    4.403638388379e-02
    81   -6.881550520044e-02
    82    2.071157241681e-02
    83   -2.059533141031e-02
    84    1.983148410729e-02
    85    1.957396608620e-02
    86    4.660181831383e-01
    87    2.714767267083e-02
    88   -2.026465941626e-01
    89    1.054154675252e-01
    90   -1.513678649828e-01
    91   -8.239909068468e-02
    92    1.519651096450e-02
    93   -2.614950032941e-02
    94   -1.020866594510e-02
    95    3.109247437131e-02
    96    8.705672953211e-03
    97    1.234321621655e-02
    98   -3.143642373155e-01
    99    3.057805067407e-01
   100   -1.228895243804e-01
   101   -3.457971886933e-01
   102    2.730037132428e-01
   103    5.400454830494e-02
   104    1.876523854346e-01
   105   -9.569122710860e-02
   106   -7.964056280140e-02
   107   -7.458179516696e-02
   108    4.745113164488e-02
   109   -4.046177133060e-02
   110   -1.479682775184e-02
   111    8.737961584439e-03
   112    9.131849930738e-03
   113    3.087385378566e-03
   114    1.870808516402e-02
   115   -4.190317376965e-03
   116    1.980742714575e-02
   117   -7.195025116258e-03
   118   -1.151574393497e-02
   119   -9.240107070239e-05
   120   -1.371032709896e-02
   121   -2.362695946141e-03
   122   -3.931876333484e-02
   123   -3.479401217890e-02
   124    3.298602787413e-03
   125   -4.678765004443e-03
   126   -2.458871458818e-02
   127    2.741129813574e-02
   128   -4.305149102890e-02
   129   -2.175352165700e-02
   130    1.778142114474e-02
   131   -2.580819052555e-02
   132   -6.040387253889e-03
   133    3.011017825427e-02
   134    5.449675934585e-02
   135   -6.170655557696e-03
   136    2.971547042770e-02
   137    1.926416041992e-02
   138   -3.622751404497e-03
   139   -1.284788123016e-02
   140   -1.379806509816e-01
   141    1.476379917556e-01
   142   -6.857823734231e-02
   143   -8.984392465294e-02
   144    9.235673703971e-02
   145    5.561373146043e-02
   146    7.198341099443e-02
   147    4.144895914573e-02
   148    1.530949837990e-02
   149    1.565383537506e-02
   150   -3.384677369525e-02
   151    5.531792039065e-02
   152    9.632617783915e-02
   153   -8.176592557963e-02
   154   -1.425601142084e-01
   155   -1.226544490210e-01
   156    7.083248856039e-02
   157    3.238889786690e-02
   158   -2.708387556088e-01
   159    1.850340873160e-01
   160   -3.577002844688e-02
   161   -2.542082730571e-01
   162    8.406675174468e-03
   163    1.814593666505e-01
   164   -1.986217921502e-01
   165    2.559461143696e-02
   166   -5.904306934909e-02
   167   -1.834062766924e-01
   168    5.072132144749e-02
   169    1.237508761253e-01
   170   -5.783119356836e-01
   171    2.325727842560e-01
   172    1.910738715573e-01
   173   -5.184635798392e-01
   174    3.671210562960e-01
   175    1.693569984042e-01
   176   -2.605385372199e-02
   177   -4.073283027972e-02
   178    6.690021926362e-02
   179   -3.361554011793e-03
   180    2.240904732371e-02
   181    2.864951239165e-02
