[Molden Format]
[Atoms] (Angs)
  S      1   16      0.70955000     -0.28088000     -1.53333000
  C      2    6      0.46967000     -0.20843000      0.13142000
  N      3    7      0.36180000     -0.12531000      1.30404000
 GH      4    0     -1.48405000     -2.43383000     -1.16514000
 GH      5    0     -1.01211000     -3.30583000     -1.40991000
 GH      6    0     -0.81234000     -1.73944000     -1.40387000
 GH      7    0     -2.23915000      1.50976000     -0.63721000
 GH      8    0     -1.52568000      2.14576000     -0.57564000
 GH      9    0     -1.91881000      0.82175000      0.03203000
 GH     10    0     -3.46177000     -2.33344000     -3.09333000
 GH     11    0     -2.76733000     -2.51217000     -2.42282000
 GH     12    0     -4.10241000     -2.99275000     -2.76302000
 GH     13    0      3.98454000     -0.26814000      0.46814000
 GH     14    0      4.86052000     -0.63808000      0.39819000
 GH     15    0      3.86806000     -0.31932000      1.46583000
 GH     16    0     -0.25428000      3.21364000      0.01296000
 GH     17    0     -0.59898000      3.55167000      0.85380000
 GH     18    0      0.64819000      2.97490000      0.15767000
 GH     19    0      3.71975000     -1.76917000     -3.54767000
 GH     20    0      3.31514000     -0.94103000     -3.14514000
 GH     21    0      4.07360000     -1.34296000     -4.37515000
 GH     22    0     -3.56484000     -0.33466000      2.31168000
 GH     23    0     -4.11726000     -0.37749000      3.08375000
 GH     24    0     -3.80832000      0.51167000      1.86878000
 GH     25    0      2.56931000      0.45889000      3.10429000
 GH     26    0      2.69234000      1.37842000      3.23812000
 GH     27    0      1.74686000      0.27372000      2.61507000
 GH     28    0      0.66037000      2.15583000     -3.36336000
 GH     29    0      0.71334000      1.54137000     -2.65406000
 GH     30    0      1.32053000      2.82821000     -3.11677000
 GH     31    0      4.08937000      2.02400000     -1.29877000
 GH     32    0      3.64484000      2.60341000     -0.61814000
 GH     33    0      3.71120000      1.17452000     -1.07363000
 GH     34    0     -2.33313000      1.57770000     -3.50823000
 GH     35    0     -2.37856000      1.50540000     -2.48834000
 GH     36    0     -1.34757000      1.62486000     -3.62693000
 GH     37    0     -4.96230000     -0.76430000     -0.59747000
 GH     38    0     -4.54002000     -0.74338000      0.27736000
 GH     39    0     -4.41091000     -1.37300000     -1.17068000
 GH     40    0      1.57617000     -3.21413000     -3.96080000
 GH     41    0      1.47368000     -2.91167000     -3.05557000
 GH     42    0      2.47516000     -2.81715000     -4.01140000
 GH     43    0     -0.98107000     -2.39445000      4.28950000
 GH     44    0     -1.66333000     -1.99174000      4.86573000
 GH     45    0     -1.08297000     -2.13697000      3.37961000
 GH     46    0     -1.89832000     -2.58476000      1.67025000
 GH     47    0     -2.37186000     -1.71454000      1.71125000
 GH     48    0     -1.39281000     -2.54903000      0.83471000
 GH     49    0      2.31825000      2.71368000      0.70214000
 GH     50    0      2.63834000      3.26980000      1.39888000
 GH     51    0      2.22390000      1.82734000      1.05173000
 GH     52    0     -1.06143000      3.61994000      2.62966000
 GH     53    0     -1.08861000      2.81737000      3.18187000
 GH     54    0     -1.79223000      4.16873000      3.05022000
 GH     55    0      2.37615000      3.10499000      4.02440000
 GH     56    0      1.49391000      3.11944000      4.49812000
 GH     57    0      2.99890000      3.40276000      4.74464000
 GH     58    0     -1.79148000      1.67015000      4.53687000
 GH     59    0     -2.15327000      1.89324000      5.41945000
 GH     60    0     -1.94583000      0.71886000      4.45897000
 GH     61    0     -0.50211000     -4.76342000     -1.71547000
 GH     62    0     -0.33691000     -5.33841000     -0.96373000
 GH     63    0      0.03037000     -5.26336000     -2.38545000
[GTO]
1    0
S    6    1.000000
   2.19171000E+04    1.86924085E-03 
   3.30149000E+03    1.42303065E-02 
   7.54146000E+02    6.96962317E-02 
   2.12711000E+02    2.38487108E-01 
   6.79896000E+01    4.83307219E-01 
   2.30515000E+01    3.38074154E-01 
SP   6    1.000000
   4.23735000E+02   -2.37677050E-03   4.06100998E-03 
   1.00710000E+02   -3.16930067E-02   3.06812999E-02 
   3.21599000E+01   -1.13317024E-01   1.30451999E-01 
   1.18079000E+01    5.60900118E-02   3.27204999E-01 
   4.63110000E+00    5.92255124E-01   4.52850998E-01 
   1.87025000E+00    4.55006095E-01   2.56041999E-01 
SP   3    1.000000
   2.61584000E+00   -2.50373114E-01  -1.45104896E-02 
   9.22167000E-01    6.69567631E-02   3.10262777E-01 
   3.41287000E-01    1.05450627E+00   7.54482457E-01 
SP   1    1.000000
   1.17167000E-01    1.00000000E+00   1.00000000E+00 
SP   1    1.000000
   4.05000000E-02    1.00000000E+00   1.00000000E+00 
D    1    1.000000
   6.50000000E-01    1.00000000E+00 

2    0
S    6    1.000000
   3.04752488E+03    1.83473713E-03 
   4.57369518E+02    1.40373228E-02 
   1.03948685E+02    6.88426223E-02 
   2.92101553E+01    2.32184443E-01 
   9.28666296E+00    4.67941348E-01 
   3.16392696E+00    3.62311985E-01 
SP   3    1.000000
   7.86827235E+00   -1.19332420E-01   6.89990666E-02 
   1.88128854E+00   -1.60854152E-01   3.16423961E-01 
   5.44249258E-01    1.14345644E+00   7.44308291E-01 
SP   1    1.000000
   1.68714478E-01    1.00000000E+00   1.00000000E+00 
SP   1    1.000000
   4.38000000E-02    1.00000000E+00   1.00000000E+00 
D    1    1.000000
   8.00000000E-01    1.00000000E+00 

3    0
S    6    1.000000
   4.17351146E+03    1.83477216E-03 
   6.27457911E+02    1.39946270E-02 
   1.42902093E+02    6.85865518E-02 
   4.02343293E+01    2.32240873E-01 
   1.28202129E+01    4.69069948E-01 
   4.39043701E+00    3.60455199E-01 
SP   3    1.000000
   1.16263619E+01   -1.14961182E-01   6.75797439E-02 
   2.71627981E+00   -1.69117479E-01   3.23907296E-01 
   7.72218397E-01    1.14585195E+00   7.40895140E-01 
SP   1    1.000000
   2.12031497E-01    1.00000000E+00   1.00000000E+00 
SP   1    1.000000
   6.39000000E-02    1.00000000E+00   1.00000000E+00 
D    1    1.000000
   8.00000000E-01    1.00000000E+00 

4    0
SP   1    1.000000
   8.45000000E-02    1.00000000E+00   1.00000000E+00 

5    0
S    1    1.000000
   1.61277759E-01    1.00000000E+00 

6    0
S    1    1.000000
   1.61277759E-01    1.00000000E+00 

7    0
SP   1    1.000000
   8.45000000E-02    1.00000000E+00   1.00000000E+00 

8    0
S    1    1.000000
   1.61277759E-01    1.00000000E+00 

9    0
S    1    1.000000
   1.61277759E-01    1.00000000E+00 

10    0
SP   1    1.000000
   8.45000000E-02    1.00000000E+00   1.00000000E+00 

11    0
S    1    1.000000
   1.61277759E-01    1.00000000E+00 

12    0
S    1    1.000000
   1.61277759E-01    1.00000000E+00 

13    0
SP   1    1.000000
   8.45000000E-02    1.00000000E+00   1.00000000E+00 

14    0
S    1    1.000000
   1.61277759E-01    1.00000000E+00 

15    0
S    1    1.000000
   1.61277759E-01    1.00000000E+00 

16    0
SP   1    1.000000
   8.45000000E-02    1.00000000E+00   1.00000000E+00 

17    0
S    1    1.000000
   1.61277759E-01    1.00000000E+00 

18    0
S    1    1.000000
   1.61277759E-01    1.00000000E+00 

19    0
SP   1    1.000000
   8.45000000E-02    1.00000000E+00   1.00000000E+00 

20    0
S    1    1.000000
   1.61277759E-01    1.00000000E+00 

21    0
S    1    1.000000
   1.61277759E-01    1.00000000E+00 

22    0
SP   1    1.000000
   8.45000000E-02    1.00000000E+00   1.00000000E+00 

23    0
S    1    1.000000
   1.61277759E-01    1.00000000E+00 

24    0
S    1    1.000000
   1.61277759E-01    1.00000000E+00 

25    0
SP   1    1.000000
   8.45000000E-02    1.00000000E+00   1.00000000E+00 

26    0
S    1    1.000000
   1.61277759E-01    1.00000000E+00 

27    0
S    1    1.000000
   1.61277759E-01    1.00000000E+00 

28    0
SP   1    1.000000
   8.45000000E-02    1.00000000E+00   1.00000000E+00 

29    0
S    1    1.000000
   1.61277759E-01    1.00000000E+00 

30    0
S    1    1.000000
   1.61277759E-01    1.00000000E+00 

31    0
SP   1    1.000000
   8.45000000E-02    1.00000000E+00   1.00000000E+00 

32    0
S    1    1.000000
   1.61277759E-01    1.00000000E+00 

33    0
S    1    1.000000
   1.61277759E-01    1.00000000E+00 

34    0
SP   1    1.000000
   8.45000000E-02    1.00000000E+00   1.00000000E+00 

35    0
S    1    1.000000
   1.61277759E-01    1.00000000E+00 

36    0
S    1    1.000000
   1.61277759E-01    1.00000000E+00 

37    0
SP   1    1.000000
   8.45000000E-02    1.00000000E+00   1.00000000E+00 

38    0
S    1    1.000000
   1.61277759E-01    1.00000000E+00 

39    0
S    1    1.000000
   1.61277759E-01    1.00000000E+00 

40    0
SP   1    1.000000
   8.45000000E-02    1.00000000E+00   1.00000000E+00 

41    0
S    1    1.000000
   1.61277759E-01    1.00000000E+00 

42    0
S    1    1.000000
   1.61277759E-01    1.00000000E+00 

43    0
SP   1    1.000000
   8.45000000E-02    1.00000000E+00   1.00000000E+00 

44    0
S    1    1.000000
   1.61277759E-01    1.00000000E+00 

45    0
S    1    1.000000
   1.61277759E-01    1.00000000E+00 

46    0
SP   1    1.000000
   8.45000000E-02    1.00000000E+00   1.00000000E+00 

47    0
S    1    1.000000
   1.61277759E-01    1.00000000E+00 

48    0
S    1    1.000000
   1.61277759E-01    1.00000000E+00 

49    0
SP   1    1.000000
   8.45000000E-02    1.00000000E+00   1.00000000E+00 

50    0
S    1    1.000000
   1.61277759E-01    1.00000000E+00 

51    0
S    1    1.000000
   1.61277759E-01    1.00000000E+00 

52    0
SP   1    1.000000
   8.45000000E-02    1.00000000E+00   1.00000000E+00 

53    0
S    1    1.000000
   1.61277759E-01    1.00000000E+00 

54    0
S    1    1.000000
   1.61277759E-01    1.00000000E+00 

55    0
SP   1    1.000000
   8.45000000E-02    1.00000000E+00   1.00000000E+00 

56    0
S    1    1.000000
   1.61277759E-01    1.00000000E+00 

57    0
S    1    1.000000
   1.61277759E-01    1.00000000E+00 

58    0
SP   1    1.000000
   8.45000000E-02    1.00000000E+00   1.00000000E+00 

59    0
S    1    1.000000
   1.61277759E-01    1.00000000E+00 

60    0
S    1    1.000000
   1.61277759E-01    1.00000000E+00 

61    0
SP   1    1.000000
   8.45000000E-02    1.00000000E+00   1.00000000E+00 

62    0
S    1    1.000000
   1.61277759E-01    1.00000000E+00 

63    0
S    1    1.000000
   1.61277759E-01    1.00000000E+00 

[MO]
Sym=X
Ene= -0.002521
Spin=Alpha
Occup=1
     1   -6.483935585612e-03
     2    3.935722274746e-02
     3   -7.906030569443e-02
     4    4.073761429324e-02
     5   -2.989016859540e-02
     6    1.060358937532e-01
     7    1.524611642386e-01
     8   -1.065408064478e-01
     9   -1.018257157553e-02
    10   -3.036017993239e-01
    11   -1.449877293502e-01
    12    1.864337758130e-01
    13   -3.860573505029e-01
    14   -3.824423643464e-01
    15    7.237535805668e-01
    16   -5.760939039293e-01
    17   -7.746386563254e-02
    18   -7.040031250275e-02
    19    2.825963033323e-02
    20   -5.388918883911e-02
    21    1.291151331034e-01
    22   -5.424290308673e-01
    23    2.892836449496e-01
    24   -7.121612576916e-03
    25   -3.427375986635e-02
    26    5.401853137275e-02
    27   -3.154002790235e-02
    28   -6.702711966977e-02
    29    1.029680117711e-01
    30    1.260404029704e-01
    31   -1.047685800703e-01
    32   -2.724608095523e-01
    33    1.862819083183e+00
    34   -8.434339818359e-01
    35    6.935005922184e-01
    36    4.747307442573e-01
    37    1.197053594200e-02
    38   -1.584613993367e-02
    39    2.288741286935e-02
    40   -2.376062406057e-02
    41   -2.028375602509e-02
    42    1.608050350311e-02
    43   -1.415321930106e-02
    44    5.703135882867e-02
    45    6.142851711863e-01
    46   -3.460893799214e-01
    47    3.977519556756e-02
    48    3.012808544287e-01
    49   -4.827820315002e-01
    50    2.847941161305e-01
    51   -1.256280564716e-01
    52   -1.340685951009e+00
    53    6.671468075002e-02
    54   -1.018123627294e-01
    55    1.264407853492e-01
    56    9.713578720362e-03
    57   -4.199264683669e-02
    58   -4.991092849444e-02
    59   -3.655889317316e-02
    60   -4.365890368932e-02
    61    2.673433511892e-02
    62   -8.882604403048e-02
    63   -1.406764967173e-02
    64   -1.007825228299e-01
    65   -3.993779075992e-02
    66   -5.006745129399e-02
    67    1.685709427310e-01
    68   -2.789325587920e-02
    69    2.594008058456e-02
    70    3.286659238720e-02
    71   -8.048762799295e-02
    72   -3.883401469370e-02
    73   -6.309436360550e-02
    74    4.188614013181e-02
    75    3.645732411917e-02
    76    3.298321151096e-02
    77    1.332747708238e-02
    78   -2.977537380725e-02
    79    1.233913311478e-02
    80    8.417378715375e-03
    81   -4.860137282275e-02
    82    1.009596192289e-04
    83    8.347177610967e-02
    84    4.058374627239e-02
    85   -6.287993837285e-02
    86   -2.113339725408e-01
    87   -7.442500553100e-03
    88    5.486196784136e-02
    89   -6.378842387036e-02
    90    5.406219780213e-02
    91    2.076431894099e-02
    92   -1.430202041079e-01
    93    2.982594581400e-02
    94   -3.439272732319e-02
    95   -2.621466031394e-02
    96    4.009978072796e-02
    97    1.583142451602e-02
    98   -1.264610070069e-01
    99    1.172704847572e-02
   100   -3.211607648410e-02
   101   -1.784442464037e-02
   102    3.987788636696e-02
   103    1.102993868433e-02
   104   -5.554648664963e-02
   105    2.148506453434e-02
   106    1.312529635400e-02
   107    1.269297312403e-02
   108    2.269786460639e-02
   109   -3.474946980770e-02
   110    1.508440804149e-01
   111    9.539495827207e-03
   112    2.276430871168e-02
   113    3.253100630142e-02
   114   -6.148711362394e-02
   115   -2.689520890631e-02
   116    3.335110456679e-02
   117   -7.588327674176e-03
   118   -1.238943037960e-02
   119    3.123097605318e-02
   120   -1.739197762852e-02
   121   -1.795685386894e-02
   122    8.501184234131e-02
   123    3.230608730669e-02
   124   -4.054252422006e-02
   125   -1.573822821467e-03
   126   -1.974545276896e-02
   127    1.836414130449e-02
   128    2.484933495054e-03
   129   -3.378036177060e-04
   130    6.343613459966e-04
   131    3.039338296599e-03
   132   -6.245695372873e-03
   133   -1.942998958456e-03
   134   -7.553744442441e-02
   135   -8.874482230961e-03
   136   -7.079722987364e-03
   137   -1.929884823427e-02
   138    8.117522141154e-03
   139    1.549638886202e-02
   140   -8.164373704722e-02
   141   -1.900025162226e-03
   142   -1.943449404430e-02
   143    3.762405886089e-02
   144    7.595958971068e-03
   145    5.594934879996e-02
   146   -1.937626272534e-01
   147   -3.257921972019e-02
   148   -8.001768813302e-02
   149    5.341940458739e-02
   150    5.510901565834e-02
   151    6.756988780341e-02
   152   -1.133232729843e-01
   153   -3.152778147653e-03
   154    2.514134111295e-02
   155   -3.419440146297e-02
   156    4.249652317737e-02
   157   -1.123136498612e-02
   158   -9.929397913561e-02
   159    3.334323126504e-02
   160    2.142550958116e-02
   161   -1.907168043828e-02
   162    1.118284971946e-02
   163    4.164745171751e-02
   164   -3.725075518615e-02
   165    6.439056507359e-03
   166    8.815725152791e-03
   167   -2.201966828674e-03
   168    8.560141457240e-03
   169    1.110260177255e-02
   170   -6.037766322474e-02
   171    1.954485269066e-02
   172    1.437036815069e-02
   173   -3.676110278730e-02
   174    3.377192810755e-02
   175    6.176630570528e-03
   176   -4.002510896324e-02
   177   -4.208918879420e-03
   178   -7.427766681894e-04
   179    1.320644018542e-02
   180    2.030459149776e-03
   181    2.044824789807e-02
Sym=X
Ene= -0.002621
Spin=Alpha
Occup=1
     1   -1.677743601337e-02
     2    1.010667341096e-01
     3    3.036183745705e-02
     4   -1.926988629459e-02
     5   -3.302280352671e-02
     6    2.123712917423e-01
     7   -7.279955570779e-02
     8    1.705117748412e-02
     9   -8.449719687779e-02
    10   -5.800356472429e-01
    11    2.933175769420e-01
    12   -5.507679790917e-02
    13   -5.686271194109e-01
    14    4.564487689421e-02
    15   -3.081740866532e-01
    16   -6.453544046286e-02
    17    1.102160399743e-01
    18   -5.474690663878e-01
    19    1.341616460261e-01
    20    2.419529021515e-01
    21    4.179342714095e-01
    22   -2.483736281945e-01
    23    1.246585565270e-01
    24   -3.144056435202e-02
    25   -8.354105815243e-03
    26    1.773122205915e-01
    27   -9.287479583396e-02
    28   -4.674669199373e-02
    29    1.732711805460e-01
    30   -1.007409998859e-01
    31    3.196553122602e-02
    32   -3.308142749048e-01
    33    3.930552096135e-01
    34   -1.154315620817e-02
    35    3.050452820798e-01
    36    1.000204711677e-01
    37   -2.622306022450e-02
    38   -1.832816786648e-02
    39    1.372417149987e-01
    40    2.664240151602e-03
    41    7.934284291738e-02
    42   -4.940379318545e-02
    43    6.022381286092e-03
    44   -6.615789777385e-02
    45   -4.914640898300e-01
    46    2.836774985328e-01
    47   -9.147895948487e-03
    48    2.983244047436e-01
    49    3.612266591649e-01
    50   -2.127127155959e-01
    51   -8.232805527549e-02
    52   -3.084647660338e-01
    53    1.134026055513e-01
    54   -1.218007696387e-01
    55   -1.233879296918e-02
    56    3.439212009206e-02
    57    2.112282838364e-03
    58   -5.654791407359e-02
    59   -2.381467009293e-02
    60   -7.043434338009e-03
    61    2.059293789824e-03
    62   -1.613222249495e-01
    63    2.217388541516e-02
    64   -1.154586329544e-01
    65    4.134135755833e-02
    66   -8.332443661504e-02
    67    2.605742651153e-01
    68   -2.125949230912e-01
    69   -1.050973694025e-01
    70    1.507898756118e-02
    71   -2.278374873830e-02
    72    9.394322096509e-02
    73    3.353860640482e-02
    74    1.139935444475e-02
    75   -5.116573694454e-03
    76    5.248288335498e-03
    77    1.339095158089e-02
    78    3.070141656561e-02
    79   -1.666430474135e-02
    80   -3.000825924863e-02
    81    2.029534866066e-02
    82   -1.729432054217e-02
    83    4.790670501831e-03
    84    1.557200590506e-03
    85   -2.730740301078e-03
    86   -8.453856642346e-02
    87    1.736398269720e-02
    88    1.196380236733e-02
    89   -3.582250606458e-02
    90    4.623476451509e-02
    91   -3.410774134847e-02
    92    5.318008196812e-02
    93   -9.358804060544e-03
    94    2.151746562660e-02
    95    8.163911675260e-03
    96   -7.766692392428e-03
    97   -1.313616776536e-02
    98   -1.242721526272e-02
    99   -4.218617014662e-03
   100    5.197478389369e-03
   101    2.173270135511e-02
   102   -8.340863173654e-04
   103    7.185823352601e-03
   104    4.752337820585e-02
   105   -2.610946059606e-02
   106    7.273984236132e-03
   107   -2.145996483136e-02
   108   -7.301526399474e-03
   109   -6.509569342698e-02
   110    6.364215082878e-03
   111    6.741548729419e-02
   112    5.250113947689e-02
   113   -1.168209577436e-02
   114    9.876713083333e-02
   115   -7.823169408847e-02
   116    6.105351469673e-02
   117   -1.734705807181e-02
   118   -2.031649243903e-02
   119    4.464913177138e-03
   120   -2.545565408993e-02
   121   -1.502603079695e-02
   122   -6.481123972620e-02
   123    4.744593042847e-04
   124    1.197654946651e-02
   125   -3.430312692713e-02
   126    4.815174262007e-02
   127    3.760533397127e-02
   128    1.100590184147e-02
   129    1.253861714840e-02
   130   -1.130707726154e-02
   131    7.023816314561e-03
   132   -7.564234759669e-03
   133   -8.967540588180e-03
   134    1.001660414830e-02
   135    1.660381517394e-02
   136    1.048873770544e-02
   137   -1.839250578950e-03
   138    9.742256241456e-03
   139   -1.603827464376e-02
   140   -1.168983802171e-03
   141    1.465783706973e-03
   142   -1.497875954279e-03
   143   -1.131671201553e-03
   144    5.321099111452e-03
   145   -6.836659073925e-03
   146    3.453346273197e-02
   147   -3.587258399706e-04
   148    2.040132881907e-02
   149   -3.292177927000e-03
   150   -1.509324107574e-02
   151   -2.901271678871e-02
   152   -3.626754869820e-02
   153   -4.907006566206e-03
   154   -1.337199484312e-02
   155   -1.644419931641e-02
   156    3.002748141187e-02
   157   -5.669464560630e-02
   158    1.648962216624e-02
   159   -1.454092633052e-02
   160    6.121759012295e-03
   161    7.285480463030e-03
   162   -3.265308010226e-03
   163   -1.524520523315e-02
   164   -1.531974136447e-02
   165    7.955298321928e-03
   166    6.774774025977e-03
   167    4.504135445683e-03
   168    8.668183928654e-03
   169   -1.737103263727e-03
   170    1.177652480182e-02
   171   -7.729940477790e-03
   172   -1.912895102743e-03
   173    1.775510261338e-02
   174   -1.136160660348e-02
   175    6.873492745155e-03
   176    3.626882143617e-03
   177   -6.569777048527e-04
   178    2.111647031446e-02
   179   -1.369925723980e-02
   180    6.760541925535e-03
   181   -6.385664956683e-03
Sym=X
Ene= -0.002837
Spin=Alpha
Occup=1
     1    7.718924512364e-03
     2   -4.666753156826e-02
     3    4.081312570795e-03
     4   -2.548757187670e-03
     5    1.791083903611e-02
     6   -9.964876942201e-02
     7   -6.102461526127e-02
     8    2.611509493623e-02
     9    3.339290074173e-02
    10    1.669746509074e-01
    11    1.481315354489e-01
    12   -2.665859401250e-02
    13    2.189116854961e-01
    14   -4.649686075984e-01
    15    2.350570489022e-01
    16    5.302294958620e-03
    17   -1.800655054997e-01
    18    4.646213671361e-01
    19   -5.618721973203e-02
    20   -3.204146704310e-01
    21   -2.491008283229e-01
    22   -4.294531026485e-01
    23    2.560854802313e-01
    24    6.001115188333e-03
    25    1.483186132307e-02
    26    3.327351648568e-01
    27   -1.886609865003e-01
    28    1.402968244192e-01
    29   -2.831227853999e-01
    30   -1.676936657277e-01
    31    7.451482363045e-02
    32   -8.591613361043e-02
    33    6.027860057488e-01
    34   -6.746291849394e-01
    35   -5.190683738061e-02
    36   -1.367684209966e-01
    37   -4.095270255361e-02
    38   -1.879685392172e-03
    39   -1.606299597579e-03
    40    3.447676831575e-02
    41    1.566855796455e-01
    42   -8.501026786582e-02
    43    7.099596005517e-03
    44   -4.203989810109e-02
    45   -4.600317397201e-01
    46    2.630062965806e-01
    47   -2.742200832755e-02
    48    7.757209664107e-02
    49    3.090019584244e-01
    50   -1.708577875868e-01
    51   -2.807554438278e-02
    52    4.750031705637e-02
    53    2.712696661775e-01
    54    5.447034464321e-02
    55    4.018011834152e-02
    56   -2.306674174263e-03
    57    1.443500123037e-02
    58    1.337481028805e-03
    59    8.089944892455e-03
    60   -7.186915254749e-02
    61    3.631050056792e-02
    62   -1.890062550292e-01
    63   -1.088822452150e-01
    64   -3.204774740420e-02
    65   -5.496731109839e-02
    66    6.296948408775e-02
    67    7.448591321812e-02
    68    3.176351982451e-01
    69    1.562825481439e-01
    70   -3.248994251299e-02
    71    3.908268859702e-02
    72   -1.128394543174e-01
    73   -2.775378374958e-01
    74   -1.485456273656e-02
    75    1.938861592464e-02
    76    1.357551394601e-02
    77   -1.461397888026e-02
    78   -2.151802802582e-02
    79    2.447079351411e-02
    80    1.320367241160e-01
    81   -5.437407300425e-02
    82   -6.593284687440e-03
    83    6.163857394792e-02
    84    7.751608851339e-03
    85   -7.082209777542e-02
    86   -2.374421655779e-01
    87    1.682640299869e-02
    88    4.600738643848e-02
    89   -1.033167970682e-01
    90    1.076010937158e-01
    91    5.883311994863e-02
    92   -4.301444969150e-02
    93   -6.722531147633e-03
    94   -1.862436548362e-02
    95    2.022004558376e-02
    96   -8.886469406399e-03
    97    2.626114218095e-02
    98   -1.880065514739e-02
    99   -1.860081063409e-02
   100   -2.284362392580e-02
   101    3.380037461769e-02
   102   -1.808112771021e-02
   103    1.669617102422e-02
   104    1.126154495976e-01
   105   -3.191993749678e-02
   106    1.285881250028e-02
   107   -2.654426436189e-02
   108   -3.938763251784e-03
   109   -1.698604847590e-01
   110    2.283372187048e-02
   111   -1.472618988029e-02
   112   -9.368882787574e-03
   113    1.273902425231e-02
   114   -8.996883144431e-02
   115    3.470464514644e-02
   116   -8.310756102591e-03
   117    1.470115110819e-02
   118   -5.639474465662e-03
   119    1.128582508684e-02
   120    2.989908610880e-02
   121    3.108157785771e-03
   122   -6.338200619068e-03
   123   -3.802488426227e-02
   124   -7.220329307771e-03
   125    2.935260182980e-03
   126   -5.828802383490e-02
   127    4.505706109346e-02
   128   -3.892317208553e-02
   129   -3.038751963448e-02
   130    1.021034370521e-02
   131   -3.500147665852e-03
   132    2.084559697025e-02
   133    2.010682468011e-02
   134    1.454489392459e-02
   135   -1.361025236325e-02
   136    7.498921150685e-03
   137    8.733368911960e-03
   138   -2.388082163852e-02
   139   -4.797903725858e-03
   140   -3.442173216009e-02
   141    3.103477913389e-03
   142   -6.362287192676e-03
   143    1.766032234588e-02
   144    4.019294490654e-03
   145    2.889736293027e-02
   146   -8.152127801605e-02
   147   -3.204040574155e-03
   148   -3.215104043756e-02
   149    2.481920219515e-02
   150    3.824838740725e-03
   151    5.722470019444e-02
   152    1.402407296535e-02
   153   -2.731486486375e-02
   154    1.619550546729e-02
   155   -1.160485624896e-02
   156    8.646486447044e-03
   157    1.890568311762e-02
   158   -1.513921158188e-02
   159    1.779948416221e-02
   160    2.144209588572e-02
   161   -1.211102476247e-02
   162    1.690402544494e-02
   163    1.137826297144e-02
   164   -2.573238845454e-02
   165    1.242513520608e-02
   166    1.621896667461e-02
   167    1.624059124606e-03
   168    1.477158917827e-02
   169    1.091022144044e-03
   170    7.371387184697e-03
   171   -1.092266540351e-02
   172    1.283481651668e-02
   173    1.379385082816e-02
   174   -1.200664784012e-02
   175    6.236415934221e-03
   176   -4.356789066122e-03
   177    4.202977034110e-03
   178   -2.106709376746e-03
   179    1.541178818838e-02
   180   -6.251919921049e-03
   181    8.467547324070e-03
Sym=X
Ene= -0.014353
Spin=Alpha
Occup=1
     1    3.342028600532e-03
     2   -3.791964130613e-03
     3    5.853834008009e-03
     4   -4.545388861703e-04
     5   -3.575278956947e-02
     6    5.669833251176e-02
     7   -4.294289290768e-02
     8    3.270531519219e-03
     9    2.476661691687e-01
    10    4.603394134156e-01
    11   -1.542809200836e-02
    12    3.412174441245e-02
    13    2.038945468094e-01
    14    4.082712970571e+00
    15   -2.020964251935e-01
    16    2.011691186800e-01
    17    1.105857161761e+00
    18    4.011281063380e-03
    19    2.955828211843e-02
    20    5.526960470488e-02
    21    2.281739956119e-02
    22   -1.653061863735e-02
    23    8.578853024225e-03
    24   -6.974444547981e-02
    25    3.378853812137e-02
    26   -2.486880739088e-02
    27    9.577297136621e-03
    28    1.954251501242e-01
    29   -6.313342475134e-01
    30   -1.385463835971e-01
    31    7.424489125900e-02
    32    6.333634014962e-01
    33   -7.554483311480e+00
    34    6.454331885105e-02
    35   -4.181513028203e-01
    36    8.028415358308e-01
    37    2.203444225117e-02
    38    4.573967961608e-02
    39    5.004343152852e-02
    40    2.048803417897e-02
    41   -1.954604627548e-02
    42    4.637278006688e-04
    43   -3.236730781580e-02
    44   -4.695840090837e-01
    45    6.527644717064e-02
    46   -2.962818900233e-02
    47   -3.597756929240e-04
    48   -2.703796820629e-01
    49    1.764980398227e-02
    50   -1.391827075991e-02
    51   -2.753306811508e-01
    52    3.987346980334e+00
    53    7.222591603891e-02
    54    5.670748046641e-02
    55   -1.458995142793e+00
    56    2.298410639180e-01
    57    2.006425295445e-01
    58    4.758769050311e-02
    59   -2.127599619653e-02
    60    3.202181285039e-02
    61   -1.141001215862e-02
    62    5.802391623530e-02
    63   -3.799242637272e-03
    64    4.921370359089e-02
    65    7.092375006008e-02
    66    3.591761833583e-03
    67    2.623009555116e-02
    68    2.195212738409e-01
    69    5.231641548119e-02
    70   -5.265828530933e-02
    71    6.181200279795e-02
    72    1.275234707539e-02
    73   -5.555841269766e-02
    74   -7.010801382229e-03
    75   -5.562597742884e-03
    76   -9.911926173785e-03
    77   -1.933166120616e-03
    78    1.215547718701e-02
    79   -7.245177471674e-03
    80    6.926273492308e-02
    81    1.923400845200e-02
    82   -8.320687860827e-03
    83    1.160240268463e-02
    84   -2.607917090941e-02
    85    2.239197532494e-03
    86    3.452006814240e-02
    87    3.100604359800e-02
    88   -3.232561256866e-02
    89   -7.827101987462e-02
    90    7.186547473430e-02
    91    4.103619464651e-04
    92   -8.868873008386e-03
    93   -1.139937900571e-04
    94   -5.866542429068e-04
    95   -2.123095218289e-02
    96   -6.369188983406e-03
    97   -5.117589947612e-03
    98    4.367298070682e-02
    99    2.759470910772e-02
   100    2.760193632627e-03
   101   -3.225274026011e-02
   102    1.159330134850e-02
   103   -1.063307835796e-02
   104    8.149484803339e-02
   105   -4.309681772699e-02
   106   -4.511806884118e-02
   107    1.576941931221e-02
   108    2.014132670646e-02
   109   -2.927323161092e-02
   110   -6.724770910653e-02
   111   -6.452611494802e-03
   112    6.035923506960e-03
   113   -1.183506737550e-02
   114    1.465805004615e-02
   115   -3.897971938220e-03
   116   -3.412995073218e-02
   117    3.927355248078e-03
   118    2.715095831269e-02
   119    1.455343847834e-02
   120   -3.200150510805e-02
   121    3.582451386903e-02
   122   -6.866181868468e-02