[Molden Format]
[Atoms] (Angs)
  S      1   16      0.70955000     -0.28088000     -1.53333000
  C      2    6      0.46967000     -0.20843000      0.13142000
  N      3    7      0.36180000     -0.12531000      1.30404000
 GH      4    0     -1.48405000     -2.43383000     -1.16514000
 GH      5    0     -1.01211000     -3.30583000     -1.40991000
 GH      6    0     -0.81234000     -1.73944000     -1.40387000
 GH      7    0     -2.23915000      1.50976000     -0.63721000
 GH      8    0     -1.52568000      2.14576000     -0.57564000
 GH      9    0     -1.91881000      0.82175000      0.03203000
 GH     10    0     -3.46177000     -2.33344000     -3.09333000
 GH     11    0     -2.76733000     -2.51217000     -2.42282000
 GH     12    0     -4.10241000     -2.99275000     -2.76302000
 GH     13    0      3.98454000     -0.26814000      0.46814000
 GH     14    0      4.86052000     -0.63808000      0.39819000
 GH     15    0      3.86806000     -0.31932000      1.46583000
 GH     16    0     -0.25428000      3.21364000      0.01296000
 GH     17    0     -0.59898000      3.55167000      0.85380000
 GH     18    0      0.64819000      2.97490000      0.15767000
 GH     19    0      3.71975000     -1.76917000     -3.54767000
 GH     20    0      3.31514000     -0.94103000     -3.14514000
 GH     21    0      4.07360000     -1.34296000     -4.37515000
 GH     22    0     -3.56484000     -0.33466000      2.31168000
 GH     23    0     -4.11726000     -0.37749000      3.08375000
 GH     24    0     -3.80832000      0.51167000      1.86878000
 GH     25    0      2.56931000      0.45889000      3.10429000
 GH     26    0      2.69234000      1.37842000      3.23812000
 GH     27    0      1.74686000      0.27372000      2.61507000
 GH     28    0      0.66037000      2.15583000     -3.36336000
 GH     29    0      0.71334000      1.54137000     -2.65406000
 GH     30    0      1.32053000      2.82821000     -3.11677000
 GH     31    0      4.08937000      2.02400000     -1.29877000
 GH     32    0      3.64484000      2.60341000     -0.61814000
 GH     33    0      3.71120000      1.17452000     -1.07363000
 GH     34    0     -2.33313000      1.57770000     -3.50823000
 GH     35    0     -2.37856000      1.50540000     -2.48834000
 GH     36    0     -1.34757000      1.62486000     -3.62693000
 GH     37    0     -4.96230000     -0.76430000     -0.59747000
 GH     38    0     -4.54002000     -0.74338000      0.27736000
 GH     39    0     -4.41091000     -1.37300000     -1.17068000
 GH     40    0      1.57617000     -3.21413000     -3.96080000
 GH     41    0      1.47368000     -2.91167000     -3.05557000
 GH     42    0      2.47516000     -2.81715000     -4.01140000
 GH     43    0     -0.98107000     -2.39445000      4.28950000
 GH     44    0     -1.66333000     -1.99174000      4.86573000
 GH     45    0     -1.08297000     -2.13697000      3.37961000
 GH     46    0     -1.89832000     -2.58476000      1.67025000
 GH     47    0     -2.37186000     -1.71454000      1.71125000
 GH     48    0     -1.39281000     -2.54903000      0.83471000
 GH     49    0      2.31825000      2.71368000      0.70214000
 GH     50    0      2.63834000      3.26980000      1.39888000
 GH     51    0      2.22390000      1.82734000      1.05173000
 GH     52    0     -1.06143000      3.61994000      2.62966000
 GH     53    0     -1.08861000      2.81737000      3.18187000
 GH     54    0     -1.79223000      4.16873000      3.05022000
 GH     55    0      2.37615000      3.10499000      4.02440000
 GH     56    0      1.49391000      3.11944000      4.49812000
 GH     57    0      2.99890000      3.40276000      4.74464000
 GH     58    0     -1.79148000      1.67015000      4.53687000
 GH     59    0     -2.15327000      1.89324000      5.41945000
 GH     60    0     -1.94583000      0.71886000      4.45897000
 GH     61    0     -0.50211000     -4.76342000     -1.71547000
 GH     62    0     -0.33691000     -5.33841000     -0.96373000
 GH     63    0      0.03037000     -5.26336000     -2.38545000
[GTO]
1    0
S    6    1.000000
   2.19171000E+04    1.86924085E-03 
   3.30149000E+03    1.42303065E-02 
   7.54146000E+02    6.96962317E-02 
   2.12711000E+02    2.38487108E-01 
   6.79896000E+01    4.83307219E-01 
   2.30515000E+01    3.38074154E-01 
SP   6    1.000000
   4.23735000E+02   -2.37677050E-03   4.06100998E-03 
   1.00710000E+02   -3.16930067E-02   3.06812999E-02 
   3.21599000E+01   -1.13317024E-01   1.30451999E-01 
   1.18079000E+01    5.60900118E-02   3.27204999E-01 
   4.63110000E+00    5.92255124E-01   4.52850998E-01 
   1.87025000E+00    4.55006095E-01   2.56041999E-01 
SP   3    1.000000
   2.61584000E+00   -2.50373114E-01  -1.45104896E-02 
   9.22167000E-01    6.69567631E-02   3.10262777E-01 
   3.41287000E-01    1.05450627E+00   7.54482457E-01 
SP   1    1.000000
   1.17167000E-01    1.00000000E+00   1.00000000E+00 
SP   1    1.000000
   4.05000000E-02    1.00000000E+00   1.00000000E+00 
D    1    1.000000
   6.50000000E-01    1.00000000E+00 

2    0
S    6    1.000000
   3.04752488E+03    1.83473713E-03 
   4.57369518E+02    1.40373228E-02 
   1.03948685E+02    6.88426223E-02 
   2.92101553E+01    2.32184443E-01 
   9.28666296E+00    4.67941348E-01 
   3.16392696E+00    3.62311985E-01 
SP   3    1.000000
   7.86827235E+00   -1.19332420E-01   6.89990666E-02 
   1.88128854E+00   -1.60854152E-01   3.16423961E-01 
   5.44249258E-01    1.14345644E+00   7.44308291E-01 
SP   1    1.000000
   1.68714478E-01    1.00000000E+00   1.00000000E+00 
SP   1    1.000000
   4.38000000E-02    1.00000000E+00   1.00000000E+00 
D    1    1.000000
   8.00000000E-01    1.00000000E+00 

3    0
S    6    1.000000
   4.17351146E+03    1.83477216E-03 
   6.27457911E+02    1.39946270E-02 
   1.42902093E+02    6.85865518E-02 
   4.02343293E+01    2.32240873E-01 
   1.28202129E+01    4.69069948E-01 
   4.39043701E+00    3.60455199E-01 
SP   3    1.000000
   1.16263619E+01   -1.14961182E-01   6.75797439E-02 
   2.71627981E+00   -1.69117479E-01   3.23907296E-01 
   7.72218397E-01    1.14585195E+00   7.40895140E-01 
SP   1    1.000000
   2.12031497E-01    1.00000000E+00   1.00000000E+00 
SP   1    1.000000
   6.39000000E-02    1.00000000E+00   1.00000000E+00 
D    1    1.000000
   8.00000000E-01    1.00000000E+00 

4    0
SP   1    1.000000
   8.45000000E-02    1.00000000E+00   1.00000000E+00 

5    0
S    1    1.000000
   1.61277759E-01    1.00000000E+00 

6    0
S    1    1.000000
   1.61277759E-01    1.00000000E+00 

7    0
SP   1    1.000000
   8.45000000E-02    1.00000000E+00   1.00000000E+00 

8    0
S    1    1.000000
   1.61277759E-01    1.00000000E+00 

9    0
S    1    1.000000
   1.61277759E-01    1.00000000E+00 

10    0
SP   1    1.000000
   8.45000000E-02    1.00000000E+00   1.00000000E+00 

11    0
S    1    1.000000
   1.61277759E-01    1.00000000E+00 

12    0
S    1    1.000000
   1.61277759E-01    1.00000000E+00 

13    0
SP   1    1.000000
   8.45000000E-02    1.00000000E+00   1.00000000E+00 

14    0
S    1    1.000000
   1.61277759E-01    1.00000000E+00 

15    0
S    1    1.000000
   1.61277759E-01    1.00000000E+00 

16    0
SP   1    1.000000
   8.45000000E-02    1.00000000E+00   1.00000000E+00 

17    0
S    1    1.000000
   1.61277759E-01    1.00000000E+00 

18    0
S    1    1.000000
   1.61277759E-01    1.00000000E+00 

19    0
SP   1    1.000000
   8.45000000E-02    1.00000000E+00   1.00000000E+00 

20    0
S    1    1.000000
   1.61277759E-01    1.00000000E+00 

21    0
S    1    1.000000
   1.61277759E-01    1.00000000E+00 

22    0
SP   1    1.000000
   8.45000000E-02    1.00000000E+00   1.00000000E+00 

23    0
S    1    1.000000
   1.61277759E-01    1.00000000E+00 

24    0
S    1    1.000000
   1.61277759E-01    1.00000000E+00 

25    0
SP   1    1.000000
   8.45000000E-02    1.00000000E+00   1.00000000E+00 

26    0
S    1    1.000000
   1.61277759E-01    1.00000000E+00 

27    0
S    1    1.000000
   1.61277759E-01    1.00000000E+00 

28    0
SP   1    1.000000
   8.45000000E-02    1.00000000E+00   1.00000000E+00 

29    0
S    1    1.000000
   1.61277759E-01    1.00000000E+00 

30    0
S    1    1.000000
   1.61277759E-01    1.00000000E+00 

31    0
SP   1    1.000000
   8.45000000E-02    1.00000000E+00   1.00000000E+00 

32    0
S    1    1.000000
   1.61277759E-01    1.00000000E+00 

33    0
S    1    1.000000
   1.61277759E-01    1.00000000E+00 

34    0
SP   1    1.000000
   8.45000000E-02    1.00000000E+00   1.00000000E+00 

35    0
S    1    1.000000
   1.61277759E-01    1.00000000E+00 

36    0
S    1    1.000000
   1.61277759E-01    1.00000000E+00 

37    0
SP   1    1.000000
   8.45000000E-02    1.00000000E+00   1.00000000E+00 

38    0
S    1    1.000000
   1.61277759E-01    1.00000000E+00 

39    0
S    1    1.000000
   1.61277759E-01    1.00000000E+00 

40    0
SP   1    1.000000
   8.45000000E-02    1.00000000E+00   1.00000000E+00 

41    0
S    1    1.000000
   1.61277759E-01    1.00000000E+00 

42    0
S    1    1.000000
   1.61277759E-01    1.00000000E+00 

43    0
SP   1    1.000000
   8.45000000E-02    1.00000000E+00   1.00000000E+00 

44    0
S    1    1.000000
   1.61277759E-01    1.00000000E+00 

45    0
S    1    1.000000
   1.61277759E-01    1.00000000E+00 

46    0
SP   1    1.000000
   8.45000000E-02    1.00000000E+00   1.00000000E+00 

47    0
S    1    1.000000
   1.61277759E-01    1.00000000E+00 

48    0
S    1    1.000000
   1.61277759E-01    1.00000000E+00 

49    0
SP   1    1.000000
   8.45000000E-02    1.00000000E+00   1.00000000E+00 

50    0
S    1    1.000000
   1.61277759E-01    1.00000000E+00 

51    0
S    1    1.000000
   1.61277759E-01    1.00000000E+00 

52    0
SP   1    1.000000
   8.45000000E-02    1.00000000E+00   1.00000000E+00 

53    0
S    1    1.000000
   1.61277759E-01    1.00000000E+00 

54    0
S    1    1.000000
   1.61277759E-01    1.00000000E+00 

55    0
SP   1    1.000000
   8.45000000E-02    1.00000000E+00   1.00000000E+00 

56    0
S    1    1.000000
   1.61277759E-01    1.00000000E+00 

57    0
S    1    1.000000
   1.61277759E-01    1.00000000E+00 

58    0
SP   1    1.000000
   8.45000000E-02    1.00000000E+00   1.00000000E+00 

59    0
S    1    1.000000
   1.61277759E-01    1.00000000E+00 

60    0
S    1    1.000000
   1.61277759E-01    1.00000000E+00 

61    0
SP   1    1.000000
   8.45000000E-02    1.00000000E+00   1.00000000E+00 

62    0
S    1    1.000000
   1.61277759E-01    1.00000000E+00 

63    0
S    1    1.000000
   1.61277759E-01    1.00000000E+00 

[MO]
Sym=X
Ene= 1.999999
Spin=Alpha
Occup=1
     1   -9.861312251018e-01
     2   -4.919238464790e-02
     3   -9.118914006087e-05
     4    7.994102571006e-05
     5    6.631577104204e-04
     6    2.139014447834e-02
     7    9.147850995179e-07
     8    1.608775969669e-05
     9   -7.250661509204e-05
    10   -3.795613655482e-03
    11    5.217256959095e-05
    12   -1.013415429892e-04
    13   -1.393856074534e-04
    14    2.140007856646e-03
    15   -1.177308133521e-04
    16    1.476066627952e-04
    17    5.270973874626e-04
    18   -7.452858362171e-03
    19   -7.441421125539e-03
    20   -7.541771238662e-03
    21    8.614305736096e-06
    22    1.484452067474e-05
    23   -2.984792357402e-06
    24   -5.887611044929e-05
    25   -1.851937223965e-04
    26   -1.016797834657e-05
    27    1.018960781362e-05
    28    8.333261151294e-05
    29    4.378301300104e-04
    30   -1.383644247975e-05
    31   -2.099007553756e-05
    32    8.167660311687e-05
    33   -7.144212060063e-04
    34   -1.860054383595e-06
    35    2.922388585088e-04
    36    1.693487139165e-05
    37   -1.632532595327e-05
    38   -2.104101152257e-05
    39    2.859026671451e-04
    40   -3.143193108304e-06
    41   -4.878254634245e-05
    42    1.492761108761e-05
    43   -1.302784269108e-05
    44   -6.866810322814e-05
    45   -6.581104309388e-06
    46    6.932054979483e-06
    47    9.348442642259e-05
    48   -8.028460934181e-05
    49   -3.515904929894e-06
    50    2.053084791826e-05
    51    7.977790353707e-05
    52   -2.839759768781e-04
    53    8.924460255145e-06
    54   -1.215319329460e-04
    55    1.287374202616e-04
    56   -5.993966756595e-06
    57   -7.156076716004e-06
    58   -8.626855659708e-05
    59    4.839055222030e-07
    60   -1.154598708397e-07
    61   -1.103549866171e-05
    62   -2.600384088937e-05
    63    5.738240792868e-05
    64   -5.700330754628e-05
    65    2.647039796670e-05
    66   -3.510866620691e-05
    67    3.252328180261e-05
    68   -6.834265998602e-05
    69    1.056712532864e-05
    70    2.028472627094e-05
    71    1.633107131870e-05
    72   -2.676469837625e-05
    73   -2.733231140650e-05
    74   -2.003170344934e-05
    75   -3.337356366216e-05
    76   -1.912187496341e-05
    77    1.111727112651e-06
    78    2.649690533240e-05
    79   -1.446963879850e-05
    80   -9.359223363697e-05
    81    1.313190904795e-06
    82    1.753869893670e-05
    83    2.955102263159e-05
    84    2.908266329691e-05
    85   -3.590620011814e-06
    86   -1.504263372914e-04
    87   -1.699832228145e-05
    88    5.660814648283e-05
    89    4.941910631795e-05
    90    7.662675414154e-06
    91    8.224929624738e-06
    92   -6.078206274975e-05
    93    9.578787007355e-06
    94   -2.451678435572e-05
    95   -3.168584821310e-05
    96    3.710271599257e-05
    97   -5.300809072980e-06
    98   -9.832468474379e-06
    99    1.466791499368e-06
   100   -8.500486763409e-06
   101    1.110145897605e-05
   102   -4.731006611101e-06
   103    1.199336831424e-05
   104   -2.059276855850e-05
   105   -1.195292260966e-06
   106   -9.974166122953e-06
   107    7.800729824361e-06
   108    1.866186601326e-05
   109   -3.456307815101e-06
   110   -1.784253984586e-04
   111   -1.960148122976e-05
   112   -1.189013672942e-06
   113   -5.772168878407e-05
   114    6.267150227528e-05
   115    1.382156302743e-05
   116   -1.302497484380e-04
   117    5.962852318134e-05
   118    2.789408991037e-05
   119   -1.316619586463e-06
   120    3.190259977412e-05
   121    2.492290384229e-05
   122   -8.873723228388e-05
   123   -4.784715656828e-05
   124    1.808977616843e-05
   125   -1.232992990156e-05
   126   -1.617719271422e-05
   127    2.177050444254e-05
   128   -2.799031145819e-05
   129   -1.416412397430e-05
   130    8.042553702465e-06
   131    9.070734648183e-06
   132    9.183012310233e-06
   133    2.306284503692e-05
   134   -3.170057501107e-05
   135    1.202321508514e-05
   136    3.427691648163e-06
   137   -1.870750580149e-05
   138    3.175433906294e-05
   139   -1.433014052599e-05
   140   -1.369754233705e-05
   141    8.058440053991e-06
   142   -8.146472781183e-06
   143   -2.189157647739e-06
   144    1.197955179959e-05
   145   -2.663219289607e-07
   146    4.731957766620e-05
   147    1.237809049429e-05
   148    8.288072533632e-06
   149   -7.288226931035e-06
   150   -3.378079309198e-06
   151   -4.501559987170e-05
   152   -1.012824062237e-04
   153    1.007842684288e-05
   154    2.210384923078e-05
   155    3.920844719300e-05
   156    9.840702669748e-06
   157   -1.156293214833e-05
   158   -2.312648347127e-05
   159    1.247114306763e-06
   160   -8.508069780753e-06
   161    1.866022267463e-05
   162   -2.570031711124e-06
   163    9.373854074948e-06
   164   -1.563956696819e-05
   165   -5.033698703645e-06
   166   -1.767672438570e-06
   167    3.232567839339e-06
   168   -6.737824158270e-07
   169    9.384578773532e-06
   170   -3.121433068566e-06
   171    2.919335177744e-06
   172   -1.362442991670e-05
   173   -1.058258433221e-05
   174    1.199134282137e-05
   175   -1.010881018936e-05
   176   -9.641134669359e-05
   177   -2.075284384134e-05
   178   -1.477722030380e-05
   179   -2.247152693455e-05
   180    3.932947087672e-05
   181    2.688897352579e-05
Sym=X
Ene= 1.999799
Spin=Alpha
Occup=1
     1    1.352294677019e-04
     2   -4.799137322001e-04
     3    2.293259053936e-04
     4    1.232077979141e-04
     5    9.529113377721e-04
     6   -6.153078951447e-05
     7   -1.616876535372e-05
     8    5.425490818690e-05
     9   -2.852578278740e-04
    10   -3.888775873449e-03
    11    3.609784656030e-04
    12   -2.057350306510e-04
    13   -2.105144669140e-03
    14   -1.793722460441e-02
    15    7.957845447990e-04
    16   -1.061712366439e-03
    17   -4.689789575688e-03
    18    3.211348179561e-05
    19    2.438147195476e-05
    20   -4.155213199261e-05
    21   -3.991037141562e-06
    22    1.665201385064e-05
    23    1.148064088622e-05
    24   -2.237091819149e-02
    25   -1.101950848286e-04
    26   -3.349977720230e-05
    27   -1.862823444930e-05
    28    2.095491317604e-04
    29   -4.381454412052e-03
    30    7.760109523894e-04
    31   -7.284574596084e-04
    32   -7.190201012527e-03
    33    3.180782846229e-02
    34   -6.502286158926e-05
    35    2.517403202186e-03
    36   -4.594431979363e-03
    37   -1.146416228671e-03
    38   -1.150904530675e-03
    39   -9.859303857413e-04
    40   -6.273398192127e-06
    41   -9.642665008935e-05
    42    5.480874718018e-05
    43   -9.969418996325e-01
    44   -2.123124350948e-02
    45   -3.552121198542e-04
    46    2.469569640220e-04
    47    5.083966423890e-03
    48    1.882278176973e-02
    49    4.209036296895e-04
    50   -1.120763876914e-04
    51   -3.106565391353e-03
    52   -1.368262350250e-02
    53   -1.730328291400e-04
    54   -7.215332549053e-04
    55    5.241761851135e-03
    56    1.989636707456e-03
    57    1.935657077774e-03
    58    1.142906276639e-03
    59   -3.738529741791e-05
    60    7.292968853055e-05
    61   -2.376283770903e-05
    62   -1.158262675855e-04
    63    1.188146170676e-04
    64   -3.075969210231e-04
    65   -3.175644953669e-04
    66   -1.832424753477e-04
    67   -2.237738974737e-05
    68   -1.526971393730e-03
    69   -4.487604231124e-04
    70    3.249496583880e-04
    71   -3.254424928969e-04
    72    1.048437282733e-04
    73    5.124938989443e-04
    74    6.177515574533e-05
    75    1.044463653651e-05
    76    4.146489484789e-05
    77    2.940591873932e-05
    78   -6.705869883569e-05
    79    8.209719563560e-06
    80   -3.501521698331e-04
    81   -3.157371499434e-05
    82    3.533707657290e-05
    83   -4.239623479337e-05
    84    9.508488927548e-05
    85    4.753455101929e-05
    86   -2.757494659904e-04
    87   -1.589216690015e-04
    88    1.703413428964e-04
    89    3.495010488036e-04
    90   -2.848510251313e-04
    91    5.362180325553e-05
    92    6.046988994978e-05
    93    5.840302400984e-06
    94    1.647529953508e-05
    95    7.557580555039e-05
    96    4.994288685500e-05
    97    2.621100615855e-06
    98   -2.058833767522e-04
    99   -5.885557634764e-05
   100   -1.936714699219e-05
   101    7.732945854716e-05
   102    6.650692965445e-06
   103    3.406166787041e-05
   104   -7.132435114406e-04
   105    2.834434554969e-04
   106    7.190239417020e-05
   107    3.623465400899e-05
   108    4.613878057155e-05
   109    4.552546329854e-04
   110    3.390093307600e-04
   111    7.673243215688e-05
   112    3.536394963441e-05
   113    5.624506695162e-05
   114   -4.758007381284e-05
   115   -6.128316026455e-05
   116    2.072981528408e-04
   117   -2.856395411782e-05
   118   -1.281736107569e-04
   119   -5.794923200495e-05
   120    1.140601395408e-04
   121   -2.239398177266e-04
   122    2.881037725571e-04
   123    1.603646784147e-04
   124   -7.225659650737e-05
   125    6.737321160268e-05
   126   -4.584884493374e-05
   127   -7.858828832089e-05
   128   -9.008054642175e-05
   129   -5.632333091391e-05
   130    1.651067703515e-05
   131    1.681746694624e-05
   132    2.718285148703e-05
   133    6.012155500464e-05
   134   -6.763752470778e-05
   135   -4.252430581747e-06
   136   -5.610445982396e-05
   137    2.085819972495e-05
   138    7.780646300323e-05
   139    4.347158509401e-05
   140   -5.024261895193e-04
   141   -1.702112461038e-05
   142   -2.071198807642e-04
   143    1.605162840324e-04
   144    1.482460685696e-04
   145    1.645597942310e-04
   146   -8.289570996502e-05
   147   -5.876447565098e-05
   148    9.362195734836e-05
   149    7.259871315122e-05
   150   -8.719630316512e-05
   151    1.966865724441e-04
   152   -1.300737749664e-03
   153    1.581431792950e-04
   154    4.884146878281e-04
   155    3.692573808827e-05
   156    3.402706000806e-05
   157    6.179959068689e-04
   158   -2.730334354422e-04
   159   -1.790025741380e-06
   160   -8.012183236853e-06
   161    1.020012013528e-04
   162   -1.650383091487e-05
   163    8.515989095821e-05
   164   -1.002256744346e-05
   165    7.839910396087e-07
   166   -1.617622753204e-05
   167    4.110784058661e-05
   168   -2.273372832513e-05
   169   -7.139125098409e-06
   170   -2.106445692000e-04
   171   -8.897143389749e-05
   172    6.097906230330e-05
   173    1.074114049824e-04
   174    7.033360832764e-06
   175    4.878199588994e-05
   176   -1.647973055492e-04
   177   -6.226947347505e-06
   178   -3.345383238387e-05
   179   -3.256995192362e-05
   180    7.433202035122e-05
   181    3.674971900728e-05
Sym=X
Ene= 1.999706
Spin=Alpha
Occup=1
     1    3.117548837023e-01
     2   -1.021413991249e+00
     3   -1.716421507770e-02
     4    2.336773448248e-02
     5    1.821152965586e-01
     6    2.005677312780e-02
     7    2.908022925589e-04
     8   -1.775206473245e-04
     9    8.778095924248e-05
    10    3.093573529575e-02
    11   -1.564919918097e-03
    12    1.621109828692e-03
    13    1.170711343918e-03
    14   -3.160784632475e-02
    15    3.079996923174e-03
    16   -5.184757299695e-03
    17   -9.203695364714e-03
    18   -1.554553613815e-02
    19   -1.528973568229e-02
    20   -1.648157140105e-02
    21    2.311459293645e-04
    22    1.011275946196e-04
    23   -4.302610568605e-05
    24   -5.875601368831e-04
    25   -1.257030865102e-03
    26   -5.149803236908e-05
    27   -3.089720093293e-05
    28    3.949939077746e-04
    29   -5.269112293367e-03
    30   -3.270755424753e-04
    31    2.424512063319e-04
    32    6.784609730812e-04
    33    1.073229958205e-02
    34    3.706990136108e-03
    35   -1.263034408827e-03
    36    2.976738509105e-03
    37   -2.675019664905e-04
    38   -3.218452851995e-04
    39    1.855469110364e-03
    40   -2.556095784831e-05
    41   -3.993668444686e-04
    42    1.486431298825e-04
    43    4.243245318084e-04
    44   -7.667498519470e-04
    45   -8.864569181878e-05
    46    3.462282489144e-05
    47    4.873531435167e-04
    48    2.909727998805e-03
    49    2.979065776444e-04
    50    4.996807869324e-07
    51   -1.273241010405e-03
    52    9.467456285033e-04
    53   -1.810614333612e-03
    54    3.786208530922e-04
    55   -2.499479229470e-03
    56   -2.574720757291e-04
    57   -2.787404161472e-04
    58   -6.030426223201e-04
    59   -3.111372456177e-06
    60   -2.048847966985e-05
    61   -4.578936057467e-05
    62    6.050609516503e-03
    63    1.342760217005e-03
    64    2.965629453053e-03
    65   -7.714012691466e-04
    66   -2.387711781775e-04
    67   -3.478100700294e-03
    68    2.646521974618e-03
    69    5.762335502900e-04
    70   -8.203521846695e-04
    71   -9.155993768047e-04
    72   -4.352953697002e-05
    73    9.273849679338e-04
    74    8.612218704619e-04
    75    3.924887353724e-04
    76   -9.724100926327e-06
    77    4.157290950776e-04
    78   -1.209675567152e-03
    79    8.398510314287e-05
    80    9.309254947379e-04
    81   -2.745978687579e-04
    82   -2.308548062705e-04
    83   -5.088247119573e-04
    84   -3.084566454972e-04
    85   -6.430947292485e-05
    86    3.749265558162e-03
    87    2.991868829563e-04
    88   -1.424228797549e-03
    89   -1.830761181981e-04
    90   -8.332484367949e-04
    91   -5.565246757980e-04
    92    1.844242860665e-04
    93   -1.002987060170e-04
    94    1.308784850892e-04
    95    2.357945131854e-04
    96    3.760122376585e-04
    97   -1.286822340791e-04
    98    6.009417956997e-05
    99    1.771800966336e-05
   100    1.189538866493e-04
   101   -1.585067143625e-04
   102    6.950139520467e-05
   103    1.764902231223e-05
   104    4.451822765964e-04
   105   -1.004286014252e-04
   106    4.585292860992e-04
   107    3.211674400518e-05
   108   -4.632671074790e-04
   109    1.068801035190e-04
   110    5.785013329264e-03
   111    5.054367748638e-04
   112   -9.358589456033e-04
   113    2.274011335622e-03
   114   -2.259811391005e-03
   115   -7.605915333894e-04
   116    1.789001066626e-03
   117   -9.167906760269e-04
   118   -1.728035666526e-04
   119    1.309261508460e-04
   120   -1.021008737260e-03
   121    8.584966232362e-05
   122    2.313717507613e-03
   123    1.108205362693e-03
   124   -6.040575128274e-04
   125    5.629751609753e-04
   126   -4.425455582801e-04
   127   -6.293485124159e-04
   128    6.224101781679e-05
   129   -1.204272152270e-05
   130    7.056729599134e-06
   131   -5.919235799307e-05
   132    1.128237352644e-04
   133   -1.871407242445e-04
   134   -1.155995206728e-04
   135    2.388566031371e-05
   136   -5.107771569990e-05
   137    6.860947344680e-05
   138    2.275306067825e-04
   139   -9.103550939382e-05
   140    2.939915608199e-04
   141   -1.859182856104e-04
   142    1.301384312071e-04
   143    2.141895045702e-05
   144   -2.436084473035e-04
   145   -2.591551643125e-05
   146    5.773794641795e-05
   147   -1.986689663556e-04
   148   -9.609628578490e-05
   149   -2.901930963356e-04
   150    1.973230617607e-05
   151   -1.245986205026e-04
   152    9.070331956797e-04
   153   -2.360515397653e-04
   154   -7.092200354315e-04
   155   -1.313212487720e-03
   156    3.560381591558e-04
   157    2.521905809818e-05
   158    1.700744641536e-04
   159   -2.039054581201e-04
   160    4.229229681776e-04
   161   -2.954161889439e-04
   162    2.099966131190e-04
   163   -3.308742409170e-04
   164    1.663971441479e-04
   165    2.514628644924e-06
   166    1.149583518355e-04
   167   -2.439271156317e-04
   168    9.585341223760e-06
   169   -2.920113567265e-05
   170    1.307013759682e-04
   171    1.353542279767e-05
   172    1.350955715745e-04
   173    4.097658751079e-05
   174   -1.024641392742e-04
   175    3.147108744463e-05
   176    9.148796031517e-04
   177   -1.267490886689e-04
   178    8.233449053913e-05
   179    7.193622055950e-04
   180   -6.932640503089e-04
   181    1.418819318566e-04
Sym=X
Ene= 1.999675
Spin=Alpha
Occup=1
     1   -5.952639264283e-03
     2    1.970801973404e-02
     3    4.452055757908e-01
     4    8.912645559251e-01
     5    2.989694046048e-02
     6    3.801257536526e-04
     7    5.573975847673e-03
     8    1.176430969490e-02
     9    2.815608803999e-04
    10   -2.179262362764e-03
    11   -7.941550432852e-03
    12   -1.491348289592e-02
    13   -5.811310522871e-04
    14   -2.200585871385e-03
    15    4.200350965382e-03
    16    9.080580856047e-03
    17   -1.319189963988e-03
    18    2.415113078764e-04
    19    1.356914102435e-04
    20    6.555255034174e-05
    21    8.073822252455e-05
    22   -2.683931237860e-05
    23    6.416380468608e-06
    24    1.475892914196e-03
    25   -4.914671618087e-06
    26   -9.975975931568e-04
    27   -1.955607869070e-03
    28    6.903190347989e-05
    29   -7.040803980634e-04
    30   -7.009040689041e-04
    31   -5.817877524846e-04
    32   -7.809753611689e-04
    33    1.356258045266e-02
    34    4.047858715380e-03
    35    1.346109423164e-03
    36    2.442446992946e-03
    37   -6.229946785361e-05
    38    4.663689140372e-05
    39    6.395235472270e-06
    40   -5.552381267310e-05
    41    2.505194455240e-04
    42    5.196018644140e-04
    43    1.444874401612e-04
    44   -1.753714459059e-04
    45   -3.469180956604e-05
    46   -5.634056754176e-05
    47    2.743696077265e-05
    48    2.038681802532e-03
    49    3.951623376679e-04
    50    1.085989516869e-04
    51   -2.198600879062e-04
    52   -9.432714832952e-03
    53   -2.213890451399e-03
    54   -8.015357950661e-04
    55    9.922778535833e-04
    56   -1.197469459300e-04
    57   -7.529357182445e-05
    58   -1.134723326937e-04
    59   -1.293619418730e-05
    60    6.170149596772e-05
    61    1.703296251678e-04
    62    3.316234829828e-03
    63    2.974226051673e-04
    64    7.711860889063e-04
    65   -5.153133419292e-04
    66   -2.047886587665e-04
    67   -1.820432560490e-03
    68   -2.083856124806e-04
    69   -2.739168439660e-04
    70   -3.320966359643e-04
    71   -5.860745717300e-05
    72    1.442244296612e-04
    73   -1.164591949050e-05
    74    5.843823736139e-04
    75    6.651131048626e-04
    76    1.552449247082e-04
    77    6.899023077456e-06
    78   -5.813926186086e-04
    79    2.260212896283e-04
    80   -2.669506631668e-03
    81    4.588187017630e-04
    82    7.319025498893e-05
    83    5.186610243977e-05
    84    5.022260333400e-04
    85    4.642422419009e-04
    86   -1.354076577716e-03
    87   -3.676921835479e-04
    88    4.344511930181e-04
    89    3.469385058901e-04
    90    1.000405007186e-04
    91   -7.951676383132e-05
    92   -1.084191360325e-03
    93   -2.311408342572e-05
    94   -8.756871487547e-04
    95    3.510535308367e-04
    96    1.694410865152e-04
    97    7.772179463140e-04
    98   -5.690099820214e-07
    99   -7.253276779367e-05
   100   -4.554203660859e-05
   101   -1.528920229053e-04
   102    6.476820090458e-05
   103   -5.534409558246e-05
   104   -5.733294466879e-04
   105    5.118452029438e-05
   106    2.561053127457e-04
   107    2.685370690105e-04
   108   -3.072856640641e-05
   109    4.776649527579e-04
   110   -3.914121132327e-03
   111   -6.966052595259e-04
   112    3.045384022067e-04
   113   -1.022011970989e-03
   114    2.290697210810e-03
   115    2.540696940921e-04
   116   -1.608775903868e-03
   117    7.102758060865e-04
   118    2.514302571558e-04
   119    3.145410523728e-04
   120    2.844627744354e-04
   121   -3.205594937572e-05
   122    1.515566161647e-04